version 2
run Iteration-9-20220517-20:06:28-11040
attr configname Iteration
attr datetime 20220517-20:06:28
attr experiment Iteration
attr inifile omnetpp.ini
attr iterationvars "$i=10, $0=12-10"
attr iterationvarsf i=10,12-10-
attr measurement "$i=10, $0=12-10"
attr network Network
attr processid 11040
attr repetition 0
attr replication #0
attr resultdir results
attr runnumber 9
attr seedset 9
itervar i 10
param **.resource_ordering.amount 10
param **.resource_delivery.amount 12-10
param **.source.interArrivalTime uniform(8min,6min)
param **.allocate_ordering.resourceModuleName "\"resource_ordering\""
param **.delay_ordering.delay uniform(24min,16min)
param **.deallocate_ordering.resourceModuleName "\"resource_ordering\""
param **.allocate_delivery.resourceModuleName "\"resource_delivery\""
param **.delay_delivery.delay uniform(32min,20min)
param **.deallocate_delivery.resourceModuleName "\"resource_delivery\""

vector 0 Network.allocate_ordering queueLength:vector ETV
attr interpolationmode sample-hold
attr title "queue length, vector"
vector 1 Network.allocate_delivery queueLength:vector ETV
attr interpolationmode sample-hold
attr title "queue length, vector"
vector 2 Network.sinkStat lifeTime:vector ETV
attr interpolationmode none
attr title "lifetime of arrived jobs, vector"
attr unit s
0	0	0	0
1	0	0	0
1	29	2711	1
1	35	3248	2
1	37	3370	1
1	42	3516	2
1	47	3880	1
1	52	3973	2
1	61	4515	3
1	67	4938	4
1	70	4983	5
1	72	5005	4
1	79	5573	3
1	87	5855	4
1	90	5930	5
1	96	6199	6
1	98	6420	5
1	106	6831	6
1	112	7123	7
1	117	7395	6
1	122	7572	7
1	127	7661	6
1	132	8037	7
1	138	8398	8
1	144	8700	9
1	147	8980	8
1	148	8980	7
1	161	9440	8
1	164	9738	9
1	172	10280	8
1	177	10369	9
1	183	10703	10
1	186	10801	11
1	188	10851	10
1	196	11195	11
1	202	11848	12
1	208	12132	13
1	210	12166	12
1	218	12648	13
1	223	12717	12
1	231	13085	13
1	234	13305	14
1	242	13968	13
1	246	13985	12
1	251	14005	13
1	257	14306	14
1	260	14353	15
1	269	15281	16
1	271	15429	15
1	279	15685	16
1	281	15704	15
1	289	16055	16
1	292	16154	17
1	298	16817	18
1	304	17123	19
1	306	17166	18
1	310	17221	17
1	318	17449	18
1	324	18143	19
1	330	18361	20
1	332	18525	19
1	339	18871	18
1	347	19201	19
1	353	19538	20
1	356	19806	21
1	361	20086	20
1	366	20274	21
1	372	20552	22
1	374	20635	21
1	385	21359	22
1	388	21508	23
1	393	21696	22
1	401	22068	23
1	403	22155	22
1	411	22582	23
1	417	22767	24
1	419	23100	23
1	427	23338	24
1	429	23508	23
1	434	23579	24
1	440	24060	25
1	446	24439	26
1	451	24817	25
1	459	25056	26
1	462	25143	27
1	464	25321	26
1	472	25795	27
1	477	26167	26
1	485	26373	27
1	488	26432	28
1	493	27052	27
1	501	27216	28
1	507	27629	29
1	509	27714	28
1	514	27777	29
1	520	28231	30
1	525	28579	29
1	533	28745	30
1	539	29052	29
1	543	29052	30
1	546	29262	31
1	552	29670	32
1	557	30107	31
1	562	30193	32
1	567	30597	31
1	572	30642	32
1	578	30929	33
1	584	31316	34
1	590	31836	35
1	592	31957	34
1	596	31974	33
1	607	32648	34
1	610	32672	35
1	616	32986	36
1	618	33215	35
1	625	33491	34
1	632	33725	35
1	639	34176	36
1	642	34368	37
1	648	34736	38
1	650	34923	37
1	657	35222	36
1	662	35265	37
1	668	35754	38
1	673	36151	37
1	678	36217	38
1	684	36422	39
1	690	36942	40
1	692	36949	39
1	699	37564	38
1	707	37651	39
1	710	37943	40
1	719	38533	41
1	722	38683	42
1	724	38740	41
1	735	39214	42
1	737	39336	41
1	742	39503	42
1	748	39832	43
1	753	40233	42
1	758	40357	43
1	764	40726	44
1	766	40839	43
1	774	41247	44
1	780	41543	45
1	785	41781	44
1	793	42248	45
1	795	42361	44
1	800	42459	45
1	806	42750	46
1	812	43288	47
1	817	43548	46
1	822	43671	47
1	828	44043	48
1	833	44181	47
1	841	44545	48
1	844	44927	49
1	850	45142	50
1	855	45453	49
1	860	45516	48
1	864	45516	49
1	870	46103	50
1	879	46723	51
1	882	46745	52
1	884	46774	51
1	891	47187	50
1	896	47412	51
1	902	47902	52
1	907	48016	51
1	912	48268	52
1	917	48525	51
1	922	48612	52
1	928	49064	53
1	933	49492	52
1	941	49759	53
1	944	49844	54
1	950	50154	55
1	952	50322	54
1	963	50977	55
1	969	51259	56
1	971	51389	55
1	976	51692	56
1	981	51844	55
1	986	51863	56
1	992	52532	57
1	1001	53099	58
1	1004	53121	59
1	1006	53251	58
1	1013	53570	57
1	1021	53903	58
1	1027	54301	59
1	1032	54740	58
1	1037	54781	59
1	1040	55051	60
1	1045	55372	59
1	1050	55482	60
1	1056	55815	61
1	1061	56080	60
1	1066	56169	61
1	1075	56913	62
1	1078	57007	63
1	1080	57111	62
1	1088	57656	63
1	1093	57899	62
1	1098	58096	63
1	1103	58443	62
1	1108	58475	63
1	1114	58700	64
1	1119	59154	63
1	1124	59167	64
1	1133	59940	65
1	1138	60226	64
1	1143	60266	65
1	1149	60664	66
1	1154	60952	65
1	1159	61153	66
1	1165	61522	67
1	1171	61806	68
1	1173	61955	67
1	1178	61979	68
1	1184	62569	69
1	1189	62833	68
1	1194	62895	69
1	1203	63433	70
1	1206	63645	71
1	1208	63780	70
1	1219	64356	71
1	1222	64606	72
1	1227	64630	71
1	1235	65225	72
1	1238	65341	73
1	1243	65545	72
1	1248	65742	73
1	1254	66222	74
1	1259	66548	73
1	1267	66872	74
1	1270	66884	75
1	1272	67252	74
1	1280	67551	75
1	1285	67910	74
1	1290	67919	75
1	1296	68380	76
1	1301	68654	75
1	1306	68812	76
1	1315	69376	77
1	1318	69679	78
1	1323	69736	77
1	1327	69911	76
1	1335	70273	77
1	1341	70571	78
1	1344	70691	79
1	1350	71142	80
1	1352	71243	79
1	1359	71594	78
1	1364	71626	79
1	1370	72033	80
1	1376	72502	81
1	1382	73052	82
1	1387	73145	81
1	1391	73462	80
1	1399	73548	81
1	1405	73938	82
1	1408	74246	83
1	1416	74823	82
1	1421	74868	83
1	1424	74900	84
1	1426	74957	83
1	1434	75332	84
1	1440	75889	85
1	1446	76217	86
1	1448	76339	85
1	1455	76482	84
1	1460	76769	85
1	1466	77006	86
1	1475	77792	87
1	1477	77828	86
1	1482	77974	87
1	1487	78150	86
1	1492	78295	87
1	1498	78979	88
1	1504	79102	89
1	1509	79619	88
1	1514	79660	89
1	1516	79678	88
1	1527	80227	89
1	1533	80639	90
1	1536	80848	91
1	1538	80961	90
1	1545	81272	89
1	1550	81498	90
1	1556	81683	91
1	1565	82302	92
1	1567	82437	91
1	1575	82873	92
1	1580	83153	91
1	1585	83330	92
1	1591	83676	93
1	1594	83779	94
1	1600	84012	95
1	1602	84143	94
1	1609	84467	93
1	1614	84675	94
1	1623	85317	95
1	1629	85566	96
1	1631	85704	95
1	1636	85874	96
1	1641	86006	95
1	1649	86457	96
1	1655	86901	97
1	1658	87250	98
1	1663	87295	97
1	1668	87407	98
1	1673	87792	97
1	1681	88272	98
1	1687	88574	99
1	1693	88983	100
1	1696	89138	101
1	1698	89171	100
1	1705	89506	99
1	1713	89887	100
1	1719	90142	101
1	1722	90454	102
1	1727	90601	101
1	1732	90982	102
1	1738	91085	103
1	1740	91166	102
1	1751	91802	103
1	1757	92226	104
1	1759	92488	103
1	1767	92605	104
1	1769	92860	103
1	1777	93009	104
1	1783	93468	105
1	1786	93516	106
1	1792	93973	107
1	1794	94191	106
1	1798	94248	105
1	1806	94732	106
1	1812	94929	107
1	1820	95578	106
1	1825	95613	107
1	1828	95942	108
1	1833	96055	107
1	1838	96170	108
1	1844	96563	109
1	1846	96825	108
1	1854	97118	109
1	1859	97598	108
1	1867	97832	109
1	1870	97868	110
1	1875	98368	109
1	1883	98679	110
1	1886	98765	111
1	1891	99098	110
1	1899	99506	111
1	1902	99575	112
1	1908	99956	113
1	1913	100141	112
1	1921	100664	113
1	1923	100821	112
1	1928	100882	113
1	1934	101123	114
1	1939	101706	113
1	1947	101966	114
1	1949	102179	113
1	1954	102244	114
1	1960	102440	115
1	1966	103011	116
1	1968	103103	115
1	1976	103326	116
1	1978	103392	115
1	1986	103784	116
1	1992	104338	117
1	1994	104494	116
1	2002	104842	117
1	2007	105124	116
1	2015	105466	117
1	2017	105742	116
1	2025	105881	117
1	2028	106151	118
1	2034	106518	119
1	2039	106836	118
1	2044	106949	119
1	2050	107232	120
1	2055	107505	119
1	2063	107889	120
1	2065	108320	119
1	2073	108353	120
1	2075	108737	119
1	2083	108891	120
1	2086	109016	121
1	2092	109323	122
1	2097	109752	121
1	2102	109975	122
1	2107	110291	121
1	2115	110526	122
1	2118	110728	123
1	2124	111023	124
1	2129	111441	123
1	2134	111630	124
1	2139	111988	123
1	2147	112226	124
1	2150	112241	125
1	2159	113049	126
1	2161	113069	125
1	2166	113116	126
1	2171	113567	125
1	2176	113614	126
1	2185	114235	127
1	2190	114541	126
1	2195	114640	127
1	2198	114929	128
1	2203	115089	127
1	2211	115533	128
1	2214	115695	129
1	2220	116260	130
1	2222	116264	129
1	2233	116755	130
1	2235	116984	129
1	2240	117062	130
1	2246	117320	131
1	2251	117742	130
1	2259	118013	131
1	2262	118192	132
1	2267	118449	131
1	2274	118773	132
1	2278	119188	133
1	2283	119483	132
1	2291	119727	133
1	2294	119821	134
1	2296	119964	133
1	2304	120319	134
1	2310	120688	135
1	2315	121037	134
1	2323	121479	135
1	2325	121609	134
1	2333	121904	135
1	2336	122060	136
1	2341	122347	135
1	2346	122547	136
1	2355	123060	137
1	2357	123283	136
1	2362	123445	137
1	2367	123728	136
1	2375	123977	137
1	2381	124370	138
1	2384	124569	139
1	2386	124625	138
1	2394	124999	139
1	2396	125103	138
1	2404	125525	139
1	2410	125896	140
1	2412	126023	139
1	2420	126299	140
1	2426	126578	141
1	2431	126914	140
1	2439	127369	141
1	2442	127602	142
1	2447	127813	141
1	2455	128118	142
1	2461	128534	143
1	2463	128549	142
1	2468	128673	143
1	2473	129127	142
1	2481	129440	143
1	2487	129746	144
1	2490	129840	145
1	2495	130271	144
1	2503	130661	145
1	2505	130833	144
1	2513	130956	145
1	2516	131076	146
1	2525	131748	147
1	2527	132038	146
1	2534	132273	145
1	2539	132317	146
1	2545	132548	147
1	2551	133165	148
1	2553	133355	147
1	2561	133395	148
1	2563	133558	147
1	2571	133849	148
1	2576	134294	149
1	2580	134370	150
1	2586	134830	151
1	2588	134897	150
1	2595	135300	149
1	2600	135438	150
1	2609	136169	151
1	2612	136219	152
1	2614	136270	151
1	2621	136770	150
1	2629	136901	151
1	2632	137022	152
1	2638	137464	153
1	2646	138159	152
1	2651	138217	153
1	2653	138242	152
1	2658	138287	153
1	2664	138850	154
1	2670	139085	155
1	2675	139733	154
1	2683	139879	155
1	2685	139935	154
1	2690	140180	155
1	2696	140499	156
1	2702	140804	157
1	2708	141301	158
1	2710	141475	157
1	2717	141647	156
1	2722	141835	157
1	2728	142343	158
1	2734	142684	159
1	2740	143084	160
1	2742	143290	159
1	2749	143375	158
1	2754	143448	159
1	2760	144109	160
1	2766	144298	161
1	2771	144932	160
1	2776	144977	161
1	2781	145291	160
1	2786	145491	161
1	2795	145958	162
1	2801	146409	163
1	2804	146476	164
1	2806	146676	163
1	2813	146841	162
1	2818	147053	163
1	2827	147705	164
1	2830	147821	165
1	2832	147881	164
1	2842	148572	163
1	2847	148613	164
1	2850	148779	165
1	2856	149176	166
1	2861	149284	165
1	2866	149496	166
1	2871	149801	165
1	2879	150143	166
1	2885	150479	167
1	2887	150664	166
1	2895	150983	167
1	2901	151422	168
1	2903	151490	167
1	2911	151724	168
1	2913	152134	167
1	2918	152165	168
1	2924	152459	169
1	2932	153022	168
1	2937	153097	169
1	2943	153367	170
1	2945	153597	169
1	2950	153627	170
1	2956	153967	171
1	2961	154451	170
1	2966	154645	171
1	2972	154814	172
1	2977	155364	171
1	2982	155454	172
1	2991	156037	173
1	2993	156210	172
1	2998	156223	173
1	3004	156609	174
1	3013	157218	175
1	3015	157280	174
1	3020	157476	175
1	3025	157917	174
1	3033	158231	175
1	3036	158487	176
1	3042	158816	177
1	3044	158847	176
1	3051	159141	175
1	3056	159353	176
1	3062	159739	177
1	3068	160082	178
1	3073	160553	177
1	3078	160619	178
1	3083	160753	177
1	3091	161167	178
1	3094	161174	179
1	3099	161828	178
1	3104	161884	179
1	3110	162087	180
1	3112	162092	179
1	3120	162665	180
1	3125	163219	179
1	3133	163285	180
1	3136	163406	181
1	3138	163586	180
1	3146	163983	181
1	3152	164516	182
1	3154	164532	181
1	3162	164718	182
1	3168	165129	183
1	3170	165137	182
1	3178	165748	183
1	3180	165912	182
1	3191	166384	183
1	3193	166448	182
1	3198	166659	183
1	3204	167057	184
1	3210	167443	185
1	3215	167750	184
1	3223	168008	185
1	3226	168074	186
1	3228	168140	185
1	3239	168845	186
1	3245	169293	187
1	3247	169364	186
1	3252	169590	187
1	3257	169809	186
1	3262	170025	187
1	3271	170570	188
1	3274	170720	189
1	3276	170786	188
1	3283	171265	187
1	3288	171359	188
1	3294	171525	189
1	3299	172024	188
1	3307	172395	189
1	3310	172700	190
1	3316	172842	191
1	3318	173122	190
1	3325	173283	189
1	3330	173496	190
1	3336	173950	191
1	3345	174566	192
1	3348	174771	193
1	3353	175004	192
1	3357	175120	191
1	3365	175289	192
1	3368	175452	193
1	3377	176108	194
1	3383	176534	195
1	3385	176563	194
1	3389	176869	193
1	3397	176988	194
1	3403	177353	195
1	3406	177523	196
1	3415	178269	195
1	3419	178269	196
1	3421	178556	195
1	3429	178618	196
1	3435	179039	197
1	3440	179507	196
1	3445	179583	197
1	3448	179796	198
1	3453	180062	197
1	3461	180320	198
1	3467	180768	199
1	3470	180987	200
1	3472	181146	199
1	3479	181599	198
1	3487	181635	199
1	3493	182147	200
1	3496	182318	201
1	3501	182862	200
1	3509	182949	201
1	3511	183274	200
1	3519	183324	201
1	3525	183728	202
1	3531	184283	203
1	3533	184480	202
1	3541	184700	203
1	3546	184932	202
1	3551	185138	203
1	3554	185257	204
1	3560	185543	205
1	3565	185841	204
1	3570	186094	205
1	3575	186570	204
1	3580	186605	205
1	3586	186975	206
1	3592	187293	207
1	3594	187361	206
1	3602	187852	207
1	3607	188207	206
1	3615	188330	207
1	3618	188624	208
1	3623	188841	207
1	3628	188928	208
1	3634	189281	209
1	3643	189946	210
1	3645	190031	209
1	3650	190090	210
1	3655	190578	209
1	3663	190919	210
1	3669	191282	211
1	3672	191326	212
1	3674	191371	211
1	3682	191795	212
1	3687	192065	211
1	3692	192250	212
1	3701	192874	213
1	3707	193187	214
1	3709	193232	213
1	3717	193712	214
1	3719	193740	213
1	3727	194149	214
1	3730	194194	215
1	3736	194727	216
1	3741	194948	215
1	3746	195130	216
1	3752	195470	217
1	3754	195596	216
1	3762	195848	217
1	3771	196683	218
1	3773	196866	217
1	3778	196951	218
1	3784	197297	219
1	3789	197458	218
1	3794	197608	219
1	3800	197995	220
1	3806	198440	221
1	3811	198737	220
1	3819	199093	221
1	3821	199296	220
1	3826	199340	221
1	3832	199786	222
1	3837	200266	221
1	3842	200352	222
1	3848	200706	223
1	3854	201083	224
1	3856	201162	223
1	3864	201583	224
1	3869	201768	223
1	3874	202006	224
1	3880	202321	225
1	3882	202447	224
1	3890	202946	225
1	3899	203460	226
1	3901	203544	225
1	3906	203691	226
1	3911	203916	225
1	3916	204165	226
1	3925	204687	227
1	3927	205042	226
1	3935	205174	227
1	3938	205179	228
1	3943	205585	227
1	3948	205721	228
1	3957	206484	229
1	3960	206485	230
1	3962	206612	229
1	3969	206838	228
1	3974	206945	229
1	3980	207642	230
1	3988	208185	229
1	3993	208244	230
1	3995	208317	229
1	4003	208501	230
1	4006	208779	231
1	4015	209440	232
1	4017	209623	231
1	4024	209806	230
1	4029	209857	231
1	4032	209870	232
1	4041	210533	233
1	4047	211049	234
1	4050	211348	235
1	4055	211446	234
1	4059	211484	233
1	4064	211577	234
1	4070	212104	235
1	4076	212626	236
1	4081	212794	235
1	4085	212963	234
1	4090	212982	235
1	4099	213579	236
1	4105	214092	237
1	4108	214306	238
1	4110	214317	237
1	4120	214819	236
1	4125	214829	237
1	4128	214886	238
1	4134	215469	239
1	4139	215797	238
1	4147	216207	239
1	4149	216235	238
1	4157	216608	239
1	4163	216961	240
1	4166	217112	241
1	4168	217174	240
1	4176	217554	241
1	4178	217689	240
1	4189	218309	241
1	4192	218533	242
1	4198	218810	243
1	4200	219054	242
1	4207	219238	241
1	4212	219259	242
1	4218	219762	243
1	4223	220294	242
1	4231	220535	243
1	4233	220610	242
1	4238	220745	243
1	4244	221100	244
1	4250	221472	245
1	4252	221518	244
1	4263	222284	245
1	4265	222373	244
1	4273	222619	245
1	4276	222826	246
1	4281	222952	245
1	4289	223336	246
1	4295	223668	247
1	4298	223987	248
1	4300	223993	247
1	4308	224341	248
1	4313	224696	247
1	4318	224765	248
1	4324	225268	249
1	4326	225285	248
1	4334	225668	249
1	4340	226192	250
1	4345	226513	249
1	4350	226536	250
1	4352	226634	249
1	4363	227092	250
1	4369	227500	251
1	4372	227702	252
1	4377	228005	251
1	4385	228357	252
1	4387	228455	251
1	4392	228470	252
1	4401	229285	253
1	4403	229432	252
1	4408	229440	253
1	4417	229998	254
1	4419	230116	253
1	4424	230170	254
1	4429	230638	253
1	4437	230787	254
1	4440	231071	255
1	4449	231706	256
1	4451	231857	255
1	4456	231863	256
1	4465	232424	257
1	4467	232476	256
1	4475	232815	257
1	4478	233074	258
1	4483	233471	257
1	4488	233649	258
1	4493	233929	257
1	4501	234080	258
1	4504	234292	259
1	4510	234682	260
1	4519	235356	261
1	4521	235370	260
1	4525	235561	259
1	4533	235682	260
1	4536	235932	261
1	4542	236381	262
1	4548	236643	263
1	4550	236795	262
1	4557	237154	261
1	4565	237566	262
1	4568	237706	263
1	4574	238085	264
1	4579	238512	263
1	4587	238692	264
1	4592	239061	263
1	4597	239168	264
1	4600	239254	265
1	4609	239929	266
1	4612	239958	267
1	4617	240350	266
1	4621	240496	265
1	4626	240548	266
1	4635	241054	267
1	4638	241342	268
1	4644	241681	269
1	4649	241908	268
1	4653	241935	267
1	4661	242352	268
1	4664	242449	269
1	4670	242795	270
1	4676	243100	271
1	4678	243147	270
1	4685	243737	269
1	4693	243864	270
1	4696	244043	271
1	4702	244388	272
1	4707	244757	271
1	4712	245012	272
1	4717	245309	271
1	4725	245568	272
1	4731	245997	273
1	4737	246462	274
1	4739	246668	273
1	4744	246710	274
1	4749	246874	273
1	4754	246944	274
1	4763	247757	275
1	4769	248015	276
1	4772	248175	277
1	4774	248198	276
1	4778	248214	275
1	4786	248641	276
1	4792	249090	277
1	4797	249589	276
1	4805	249710	277
1	4810	250117	276
1	4815	250168	277
1	4821	250479	278
1	4824	250814	279
1	4829	251048	278
1	4837	251349	279
1	4840	251617	280
1	4842	251695	279
1	4850	251938	280
1	4855	252420	279
1	4863	252690	280
1	4869	252984	281
1	4871	253168	280
1	4876	253243	281
1	4882	253705	282
1	4887	254165	281
1	4892	254222	282
1	4898	254316	283
1	4903	254698	282
1	4908	254931	283
1	4917	255464	284
1	4922	255908	283
1	4927	255957	284
1	4929	256001	283
1	4937	256235	284
1	4943	256604	285
1	4949	257121	286
1	4951	257265	285
1	4955	257289	284
1	4963	257456	285
1	4969	257965	286
1	4972	258106	287
1	4978	258487	288
1	4983	258746	287
1	4990	259130	286
1	4995	259200	287
1	4998	259426	288
1	5007	260000	289
1	5009	260058	288
1	5014	260167	289
1	5019	260548	288
1	5027	260859	289
1	5033	261167	290
1	5036	261403	291
1	5041	261869	290
1	5046	261906	291
1	5051	262218	290
1	5056	262273	291
1	5065	262963	292
1	5068	263158	293
1	5077	263687	294
1	5080	263746	295
1	5082	263764	294
1	5086	263899	293
1	5094	264405	294
1	5100	264759	295
1	5105	265082	294
1	5113	265378	295
1	5115	265557	294
1	5120	265757	295
1	5126	266002	296
1	5132	266360	297
1	5134	266689	296
1	5145	267188	297
1	5148	267258	298
1	5150	267472	297
1	5158	267782	298
1	5164	268212	299
1	5169	268466	298
1	5177	268833	299
1	5179	268840	298
1	5187	269413	299
1	5193	269632	300
1	5196	269873	301
1	5201	270217	300
1	5206	270404	301
1	5208	270451	300
1	5219	271007	301
1	5225	271379	302
1	5228	271484	303
1	5234	271990	304
1	5236	272059	303
1	5243	272250	302
1	5248	272310	303
1	5257	273005	304
1	5259	273393	303
1	5267	273568	304
1	5273	273847	305
1	5275	274065	304
1	5280	274141	305
1	5286	274555	306
1	5292	275021	307
1	5297	275241	306
1	5301	275342	305
1	5309	275684	306
1	5312	275942	307
1	5318	276167	308
1	5324	276625	309
1	5326	276678	308
1	5333	276976	307
1	5338	277075	308
2	39	3370	2891
2	49	3880	2965
2	74	5005	3670
2	81	5573	3759
2	100	6420	4143
2	119	7395	4743
2	129	7661	4546
2	150	8980	5402
2	152	8980	4981
2	174	10280	5454
2	190	10851	6417
2	212	12166	6976
2	225	12717	7063
2	244	13968	7534
2	248	13985	7965
2	273	15429	8561
2	283	15704	8439
2	308	17166	9085
2	312	17221	9575
2	334	18525	9977
2	341	18871	9853
2	363	20086	10706
2	376	20635	10855
2	395	21696	11506
2	405	22155	11580
2	421	23100	12115
2	431	23508	12062
2	453	24817	12943
2	466	25321	13038
2	479	26167	13512
2	495	27052	14034
2	511	27714	14327
2	527	28579	14717
2	542	29052	14788
2	559	30107	15411
2	569	30597	15502
2	594	31957	15939
2	598	31974	16428
2	620	33215	16821
2	627	33491	16660
2	652	34923	17616
2	659	35222	17459
2	675	36151	17949
2	694	36949	18320
2	701	37564	18481
2	726	38740	19227
2	739	39336	19413
2	755	40233	19889
2	768	40839	20103
2	787	41781	20572
2	797	42361	20739
2	819	43548	21562
2	835	44181	21783
2	857	45453	22694
2	863	45516	22282
2	886	46774	23144
2	893	47187	23082
2	909	48016	23491
2	919	48525	23141
2	935	49492	24497
2	954	50322	24470
2	973	51389	25167
2	983	51844	25156
2	1008	53251	26184
2	1015	53570	26114
2	1034	54740	26891
2	1047	55372	27087
2	1063	56080	27426
2	1082	57111	28085
2	1095	57899	28423
2	1105	58443	28548
2	1121	59154	28877
2	1140	60226	29478
2	1156	60952	29728
2	1175	61955	30343
2	1191	62833	30822
2	1210	63780	31347
2	1229	64630	31731
2	1245	65545	32280
2	1261	66548	32823
2	1274	67252	33083
2	1287	67910	33269
2	1303	68654	33567
2	1325	69736	34286
2	1329	69911	34080
2	1354	71243	34545
2	1361	71594	35312
2	1389	73145	36013
2	1393	73462	35891
2	1418	74823	36827
2	1428	74957	36575
2	1450	76339	37566
2	1457	76482	37332
2	1479	77828	37792
2	1489	78150	38541
2	1511	79619	38736
2	1518	79678	39165
2	1540	80961	39713
2	1547	81272	39609
2	1569	82437	40318
2	1582	83153	40615
2	1604	84143	41213
2	1611	84467	41172
2	1633	85704	42017
2	1643	86006	41950
2	1665	87295	42795
2	1675	87792	42851
2	1700	89171	43803
2	1707	89506	43767
2	1729	90601	44402
2	1742	91166	44492
2	1761	92488	45447
2	1771	92860	45355
2	1796	94191	45803
2	1800	94248	46304
2	1822	95578	46792
2	1835	96055	46869
2	1848	96825	47268
2	1861	97598	47645
2	1877	98368	47939
2	1893	99098	48243
2	1915	100141	48910
2	1925	100821	49110
2	1941	101706	49577
2	1951	102179	49628
2	1970	103103	50093
2	1980	103392	50013
2	1996	104494	50726
2	2009	105124	50896
2	2019	105742	51103
2	2041	106836	51758
2	2057	107505	51998
2	2067	108320	52357
2	2077	108737	52387
2	2099	109752	52976
2	2109	110291	53050
2	2131	111441	53734
2	2141	111988	53888
2	2163	113069	54567
2	2173	113567	54610
2	2192	114541	55221
2	2205	115089	55371
2	2224	116264	56159
2	2237	116984	56479
2	2253	117742	56798
2	2269	118449	57124
2	2285	119483	57718
2	2298	119964	57830
2	2317	121037	58445
2	2327	121609	58635
2	2343	122347	58962
2	2359	123283	59439
2	2369	123728	59493
2	2388	124625	59998
2	2398	125103	59997
2	2414	126023	60547
2	2433	126914	60997
2	2449	127813	61449
2	2465	128549	61734
2	2475	129127	61864
2	2497	130271	62635
2	2507	130833	62813
2	2529	132038	63576
2	2536	132273	63427
2	2555	133355	64119
2	2565	133558	63859
2	2590	134897	64829
2	2597	135300	64826
2	2616	136270	65388
2	2623	136770	65445
2	2648	138159	66381
2	2655	138242	66040
2	2677	139733	67055
2	2687	139935	66876
2	2712	141475	67988
2	2719	141647	67757
2	2744	143290	68557
2	2751	143375	69077
2	2773	144932	69758
2	2783	145291	69696
2	2808	146676	70290
2	2815	146841	70879
2	2834	147881	71018
2	2844	148572	71321
2	2863	149284	71594
2	2873	149801	71666
2	2889	150664	72081
2	2905	151490	72508
2	2915	152134	72784
2	2934	153022	73273
2	2947	153597	73432
2	2963	154451	73813
2	2979	155364	74262
2	2995	156210	74698
2	3017	157280	75383
2	3027	157917	75650
2	3046	158847	76194
2	3053	159141	76094
2	3075	160553	76631
2	3085	160753	77300
2	3101	161828	77468
2	3114	162092	77316
2	3127	163219	78065
2	3140	163586	78069
2	3156	164532	78561
2	3172	165137	78738
2	3182	165912	79048
2	3195	166448	79191
2	3217	167750	80122
2	3230	168140	80037
2	3249	169364	80851
2	3259	169809	80929
2	3278	170786	81496
2	3285	171265	81598
2	3301	172024	81906
2	3320	173122	82568
2	3327	173283	82283
2	3355	175004	83602
2	3359	175120	83342
2	3387	176563	84424
2	3391	176869	84318
2	3418	178269	85272
2	3423	178556	85146
2	3442	179507	85682
2	3455	180062	85775
2	3474	181146	86401
2	3481	181599	86444
2	3503	182862	87301
2	3513	183274	87256
2	3535	184480	87623
2	3548	184932	88461
2	3567	185841	88580
2	3577	186570	88831
2	3596	187361	89215
2	3609	188207	89661
2	3625	188841	89853
2	3647	190031	90680
2	3657	190578	90861
2	3676	191371	91269
2	3689	192065	91525
2	3711	193232	92239
2	3721	193740	92308
2	3743	194948	93063
2	3756	195596	93286
2	3775	196866	94080
2	3791	197458	94272
2	3813	198737	95084
2	3823	199296	95220
2	3839	200266	95734
2	3858	201162	96162
2	3871	201768	96393
2	3884	202447	96681
2	3903	203544	97300
2	3913	203916	97281
2	3929	205042	98036
2	3945	205585	98118
2	3964	206612	98729
2	3971	206838	98487
2	3990	208185	98985
2	3997	208317	99514
2	4019	209623	99994
2	4026	209806	99779
2	4057	211446	100215
2	4061	211484	101086
2	4083	212794	101089
2	4087	212963	102159
2	4112	214317	102203
2	4122	214819	102337
2	4141	215797	102850
2	4151	216235	102898
2	4170	217174	103400
2	4180	217689	103530
2	4202	219054	104516
2	4209	219238	104222
2	4225	220294	104848
2	4235	220610	104711
2	4254	221518	105207
2	4267	222373	105660
2	4283	222952	105806
2	4302	223993	106409
2	4315	224696	106752
2	4328	225285	106903
2	4347	226513	107740
2	4354	226634	107397
2	4379	228005	108381
2	4389	228455	108394
2	4405	229432	108918
2	4421	230116	109219
2	4431	230638	109313
2	4453	231857	110166
2	4469	232476	110349
2	4485	233471	110921
2	4495	233929	110901
2	4523	235370	111914
2	4527	235561	111643
2	4552	236795	112439
2	4559	237154	112323
2	4581	238512	113318
2	4594	239061	113493
2	4619	240350	114313
2	4623	240496	114093
2	4651	241908	114656
2	4655	241935	115096
2	4680	243147	115139
2	4687	243737	116123
2	4709	244757	116284
2	4719	245309	116468
2	4741	246668	117430
2	4751	246874	117171
2	4776	248198	118105
2	4780	248214	117729
2	4799	249589	118703
2	4812	250117	118863
2	4831	251048	119315
2	4844	251695	119583
2	4857	252420	119922
2	4873	253168	120236
2	4889	254165	120789
2	4905	254698	120877
2	4924	255908	121614
2	4931	256001	121269
2	4953	257265	122072
2	4957	257289	121711
2	4985	258746	122799
2	4992	259130	122713
2	5011	260058	122803
2	5021	260548	123697
2	5043	261869	124192
2	5053	262218	124137
2	5084	263764	125228
2	5088	263899	124964
2	5107	265082	125704
2	5117	265557	125771
2	5136	266689	126442
2	5152	267472	126852
2	5171	268466	127411
2	5181	268840	127310
2	5203	270217	128243
2	5210	270451	128033
2	5238	272059	129169
2	5245	272250	128919
2	5261	273393	129630
2	5277	274065	129836
2	5299	275241	130598
2	5303	275342	130291
2	5328	276678	130783
2	5335	276976	131463

