version 2
run Iteration-3-20220517-20:06:26-5344
attr configname Iteration
attr datetime 20220517-20:06:26
attr experiment Iteration
attr inifile omnetpp.ini
attr iterationvars "$i=4, $0=12-4"
attr iterationvarsf i=4,12-4-
attr measurement "$i=4, $0=12-4"
attr network Network
attr processid 5344
attr repetition 0
attr replication #0
attr resultdir results
attr runnumber 3
attr seedset 3
itervar i 4
param **.resource_ordering.amount 4
param **.resource_delivery.amount 12-4
param **.source.interArrivalTime uniform(8min,6min)
param **.allocate_ordering.resourceModuleName "\"resource_ordering\""
param **.delay_ordering.delay uniform(24min,16min)
param **.deallocate_ordering.resourceModuleName "\"resource_ordering\""
param **.allocate_delivery.resourceModuleName "\"resource_delivery\""
param **.delay_delivery.delay uniform(32min,20min)
param **.deallocate_delivery.resourceModuleName "\"resource_delivery\""

vector 0 Network.allocate_ordering queueLength:vector ETV
attr interpolationmode sample-hold
attr title "queue length, vector"
vector 1 Network.allocate_delivery queueLength:vector ETV
attr interpolationmode sample-hold
attr title "queue length, vector"
vector 2 Network.sinkStat lifeTime:vector ETV
attr interpolationmode none
attr title "lifetime of arrived jobs, vector"
attr unit s
0	0	0	0
1	0	0	0
2	40	3024	2610
2	57	4016	3130
2	67	4351	3086
2	70	4563	2833
2	83	5125	3022
2	90	5390	2915
2	100	5890	2960
2	107	5993	2589
2	127	6838	2958
2	134	7113	2831
2	140	7614	2894
2	146	7686	2578
2	160	8311	2311
2	167	8424	2867
2	184	9338	2949
2	197	9940	3108
2	207	10225	3020
2	210	10235	2567
2	224	11002	2962
2	230	11169	2694
2	237	11291	2374
2	253	12333	2992
2	267	12793	2996
2	270	12884	2710
2	284	13385	2765
2	294	13846	2837
2	300	14111	2723
2	310	14602	2819
2	320	15099	2926
2	326	15172	2616
2	336	15740	2763
2	350	16001	2583
2	367	17103	3241
2	373	17306	2590
2	387	17569	3255
2	397	17972	2837
2	407	18642	3052
2	417	18844	2893
2	420	18883	2518
2	430	19255	2524
2	440	19582	2411
2	457	20465	2925
2	460	20627	2334
2	466	20713	2799
2	484	21475	2395
2	490	21604	2910
2	500	22143	2232
2	510	22578	3124
2	520	23055	2758
2	530	23652	2543
2	540	23755	3070
2	543	23974	2421
2	567	24994	2656
2	570	25051	3124
2	573	25285	2574
2	601	26353	2693
2	604	26373	3187
2	617	27112	3002
2	627	27458	2983
2	637	27956	3053
2	640	28015	2639
2	650	28382	2546
2	653	28643	2410
2	667	29051	2445
2	680	29930	2928
2	690	30177	2324
2	700	30490	3098
2	707	30732	2436
2	720	31599	2432
2	730	31776	3011
2	740	32307	2367
2	743	32359	2818
2	767	33286	2529
2	770	33525	3149
2	787	34282	3079
2	794	34534	2885
2	800	34589	2565
2	810	35076	2668
2	820	35669	2853
2	830	35912	2668
2	840	36386	2673
2	857	37398	3269
2	867	37557	2976
2	874	37600	2642
2	880	38301	2977
2	890	38391	2592
2	904	39130	2940
2	910	39462	2846
2	927	40122	2663
2	930	40167	3128
2	936	40446	2516
2	950	41078	2774
2	960	41709	2951
2	970	42230	3052
2	984	42408	2824
2	990	43020	3030
2	1004	43476	3101
2	1007	43487	2650
2	1017	43807	2492
2	1037	44913	2662
2	1040	44985	3194
2	1050	45137	2439
2	1067	46243	3148
2	1070	46325	2824
2	1084	46746	2858
2	1087	46831	2490
2	1107	47839	3116
2	1117	48238	3112
2	1120	48269	2727
2	1126	48499	2569
2	1140	49189	2782
2	1147	49316	2430
2	1160	49992	2727
2	1170	50245	2617
2	1180	50702	2652
2	1194	51406	2519
2	1197	51430	2974
2	1213	52392	3038
2	1227	52759	3019
2	1230	52986	2780
2	1244	53407	2724
2	1257	54094	2657
2	1263	54350	3285
2	1270	54429	2593
2	1273	54543	2336
2	1287	55057	2458
2	1304	55887	2860
2	1314	56283	2856
2	1317	56341	2523
2	1334	57095	2847
2	1340	57400	2733
2	1350	57676	2550
2	1360	58471	2938
2	1370	58611	2657
2	1380	59083	2724
2	1383	59173	2403
2	1400	59919	2754
2	1410	60459	2868
2	1420	60801	2741
2	1430	61150	2622
2	1440	61839	2831
2	1450	62053	2591
2	1457	62284	2410
2	1477	63361	3065
2	1480	63378	2708
2	1490	63976	2906
2	1500	64225	2707
2	1510	64503	2597
2	1520	65063	2687
2	1537	65703	2936
2	1547	66164	2511
2	1550	66380	3138
2	1560	66583	2513
2	1567	66843	2357
2	1587	67820	2923
2	1590	67911	2244
2	1604	68462	3157
2	1610	68714	2584
2	1620	69015	2508
2	1630	69576	2244
2	1636	69813	2867
2	1653	70548	2801
2	1660	70853	2733
2	1677	71447	2957
2	1687	72033	3121
2	1694	72160	2809
2	1697	72227	2475
2	1710	73090	2582
2	1716	73157	3045
2	1734	73838	2480
2	1737	73862	2937
2	1750	74608	2829
2	1764	75059	2802
2	1774	75564	2872
2	1780	75897	2777
2	1790	76383	2867
2	1797	76482	2544
2	1817	77289	2930
2	1820	77535	2730
2	1834	77920	2640
2	1840	78306	2234
2	1850	78738	3058
2	1860	79055	2558
2	1870	79647	2756
2	1884	80317	3037
2	1890	80679	2928
2	1893	80751	2531
2	1910	81424	2400
2	1920	81828	3200
2	1937	82631	3157
2	1944	82720	2778
2	1953	83302	2885
2	1960	83503	2625
2	1977	84165	2839
2	1984	84350	2617
2	1994	84770	2673
2	2003	85377	2874
2	2010	85614	2322
2	2024	86037	3108
2	2030	86318	2621
2	2040	86757	2659
2	2050	87280	2769
2	2053	87451	2548
2	2077	88530	3183
2	2084	88823	2607
2	2090	89034	3283
2	2093	89251	2637
2	2110	89715	2634
2	2127	90457	2933
2	2130	90692	2768
2	2144	91228	2828
2	2150	91615	2771
2	2156	91728	2476
2	2170	92266	2588
2	2173	92320	2264
2	2197	93506	3071
2	2207	93861	2985
2	2217	94273	3005
2	2220	94307	2598
2	2234	95033	2930
2	2244	95364	2829
2	2250	95587	2574
2	2256	96013	2624
2	2265	96100	2339
2	2280	96896	2714
2	2293	97576	2514
2	2300	97843	3212
2	2317	98552	3023
2	2327	98813	2911
2	2334	99054	2713
2	2347	99778	3046
2	2353	100015	2908
2	2367	100399	2893
2	2370	100542	2664
2	2387	101221	2951
2	2390	101471	2743
2	2404	101756	2628
2	2410	102322	2831
2	2420	102531	2639
2	2433	103201	2456
2	2436	103351	3067
2	2457	104137	3013
2	2460	104250	2724
2	2470	104787	2814
2	2476	104925	2589
2	2494	105735	3010
2	2504	106081	2928
2	2517	106906	3305
2	2527	107088	3024
2	2530	107144	2710
2	2537	107343	2430
2	2557	108445	2633
2	2560	108478	3130
2	2570	109041	2832
2	2580	109327	2643
2	2583	109418	2371
2	2596	110090	2564
2	2610	110575	2674
2	2627	111475	3123
2	2637	111921	2681
2	2644	112097	3321
2	2654	112368	2742
2	2663	112998	2940
2	2670	113127	2666
2	2680	113640	2777
2	2683	113664	2343
2	2711	114906	3134
2	2714	114992	2813
2	2727	115533	2540
2	2730	115655	3090
2	2740	116131	2721
2	2750	116326	2510
2	2764	116959	2693
2	2774	117378	2664
2	2780	117717	2638
2	2790	118172	2699
2	2797	118272	2428
2	2803	118542	2306
2	2820	119404	2772
2	2830	119626	2522
2	2840	120319	2833
2	2850	120509	2606
2	2860	121097	2753
2	2873	121731	3014
2	2880	121892	2707
2	2890	122277	2687
2	2900	122668	2673
2	2910	123295	2410
2	2920	123599	3142
2	2923	123724	2452
2	2947	124587	2920
2	2957	125137	3085
2	2964	125188	2683
2	2967	125335	2358
2	2987	126339	2985
2	2990	126420	2298
2	2996	126666	2908
2	3013	127479	2549
2	3020	127558	3018
2	3030	128169	2427
2	3044	128667	3302
2	3054	129063	2919
2	3060	129389	2791
2	3070	129641	2655
2	3080	130045	2674
2	3086	130474	2665
2	3093	130711	2432
2	3117	131706	2949
2	3127	132188	2586
2	3130	132265	3105
2	3140	132740	2774
2	3157	133493	3133
2	3160	133509	2723
2	3170	134044	2876
2	3187	134736	2682
2	3190	134775	3162
2	3207	135621	2694
2	3210	135784	3258
2	3220	136052	2689
2	3230	136447	2655
2	3240	136857	2684
2	3257	137597	2946
2	3267	138040	2953
2	3270	138225	2775
2	3280	138449	2556
2	3297	139317	3051
2	3300	139348	2680
2	3303	139724	2620
2	3313	139901	2332
2	3336	140998	2959
2	3337	140998	2554
2	3343	141238	2408
2	3360	142113	2820
2	3373	142590	2835
2	3387	143170	2606
2	3390	143259	3089
2	3407	143952	2932
2	3424	144673	3231
2	3427	144911	3098
2	3444	145419	3235
2	3449	145609	3022
2	3457	145897	2485
2	3460	146098	3092
2	3470	146367	2564
2	3473	146669	2474
2	3487	147073	2468
2	3497	147425	2451
2	3510	148301	2442
2	3516	148518	3131
2	3530	148899	2577
2	3537	149151	2410
2	3554	149958	2825
2	3560	150242	2705
2	3563	150286	2383
2	3580	150915	2594
2	3597	151819	3097
2	3607	152145	2542
2	3610	152258	3097
2	3620	152877	2806
2	3630	152963	2440
2	3637	153219	2328
2	3657	154329	3001
2	3664	154646	2562
2	3670	154739	3019
2	3677	155029	2490
2	3683	155286	2336
2	3700	156175	2780
2	3710	156345	2500
2	3720	156989	2711
2	3730	157365	2642
2	3740	157660	2527
2	3754	158235	2734
2	3767	159027	3081
2	3773	159080	2351
2	3780	159117	2797
2	3783	159335	2181
2	3807	160526	3000
2	3817	160912	2999
2	3827	161340	3050
2	3834	161583	2509
2	3837	161670	2973
2	3850	162369	2414
2	3860	162575	3094
2	3870	163150	2738
2	3880	163781	2521
2	3890	163973	3144
2	3900	164391	2662
2	3910	164689	2529
2	3920	165173	2648
2	3937	166043	3084
2	3944	166213	2832
2	3954	166620	2800
2	3967	167229	3006
2	3977	167676	3038
2	3980	167693	2660
2	3987	168041	2583
2	4000	168559	2643
2	4007	168882	2506
2	4024	169543	2713
2	4027	169719	2491
2	4033	170059	2459
2	4047	170618	2541
2	4053	170975	2438
2	4070	171561	2642
2	4080	171872	2503
2	4097	172696	2917
2	4107	173383	3204
2	4110	173419	2788
2	4120	173514	2522
2	4130	173941	2565
2	4144	174698	2867
2	4154	175171	2960
2	4160	175271	2688
2	4167	175411	2387
2	4177	175989	2507
2	4183	176327	2433
2	4196	177024	2741
2	4203	177285	2538
2	4224	178212	2991
2	4234	178284	2638
2	4240	178755	2691
2	4250	179398	2523
2	4253	179553	3083
2	4270	180191	2889
2	4280	180641	2871
2	4290	181051	2802
2	4293	181090	2423
2	4310	181916	2795
2	4320	182422	2835
2	4337	183002	2963
2	4340	183038	2622
2	4350	183400	2561
2	4367	184340	3132
2	4370	184418	2754
2	4376	184720	2654
2	4390	185173	2659
2	4396	185464	2585
2	4413	186391	3049
2	4420	186677	2927
2	4430	186941	2366
2	4440	187276	3114
2	4461	188244	3247
2	4464	188254	2798
2	4467	188268	2441
2	4473	188618	2376
2	4486	189376	2674
2	4504	189945	2795
2	4510	190527	2934
2	4527	191110	2292
2	4534	191236	3191
2	4537	191418	3010
2	4550	191915	2621
2	4560	192462	2703
2	4570	192816	2656
2	4573	193090	2458
2	4586	193703	2637
2	4607	194437	2937
2	4617	194909	3021
2	4631	195320	2968
2	4637	195575	2805
2	4647	195941	2802
2	4650	196061	2540
2	4664	196640	2320
2	4670	196771	2858
2	4680	197274	2516
2	4690	197787	2245
2	4704	198237	3061
2	4717	198813	2892
2	4720	198871	2530
2	4730	199412	2261
2	4733	199418	2668
2	4752	200370	2818
2	4767	201000	3044
2	4777	201673	3249
2	4787	202017	3207
2	4794	202144	2897
2	4800	202587	2942
2	4810	202781	2672
2	4825	203544	2588
2	4830	203719	3174
2	4847	204476	2696
2	4850	204489	3161
2	4860	204960	2711
2	4870	205290	2632
2	4884	205780	2687
2	4894	206440	2952
2	4907	207007	3046
2	4914	207208	2467
2	4920	207419	3063
2	4923	207589	2460
2	4940	208179	2645
2	4943	208562	2582
2	4960	209121	2673
2	4977	209925	3072
2	4984	210047	2730
2	4994	210508	2805
2	5000	210982	2857
2	5010	211292	2709
2	5016	211501	2458
2	5027	211740	2287
2	5047	212613	2792
2	5050	212867	2625
2	5060	213130	2509
2	5074	213797	2374
2	5080	213899	2875
2	5090	214281	2400
2	5100	214893	2649
2	5110	215195	2588
2	5127	215950	2899
2	5137	216349	2865
2	5144	216635	2757
2	5150	217108	2478
2	5160	217282	3042
2	5163	217448	2442
2	5173	217983	2572
2	5183	218393	2509
2	5200	218976	2628
2	5210	219589	2814
2	5220	219928	2291
2	5230	220470	3275
2	5247	221039	2552
2	5250	221113	3036
2	5264	221576	2689
2	5274	222032	2780
2	5280	222214	2561
2	5286	222680	2586
2	5307	223398	2893
2	5310	223577	2698
2	5320	224030	2684
2	5330	224564	2397
2	5336	224670	2936
2	5350	225156	2585
2	5360	225607	2669
2	5377	226427	3036
2	5380	226452	2700
2	5390	226843	2634
2	5400	227460	2829
2	5414	227877	2884
2	5424	228315	2916
2	5427	228326	2501
2	5444	229227	2576
2	5447	229296	2197
2	5450	229316	3106
2	5467	230206	2209
2	5477	230409	2854
2	5490	231288	2829
2	5500	231749	2861
2	5510	232171	2833
2	5520	232565	2761
2	5527	232639	2374
2	5547	233854	2775
2	5550	233887	3224
2	5557	233968	2460
2	5574	235001	3074
2	5580	235183	2339
2	5590	235491	3113
2	5600	236164	2888
2	5603	236249	2548
2	5617	236585	2498
2	5637	237536	3000
2	5647	238126	2690
2	5650	238280	2404
2	5653	238318	3307
2	5673	239258	2963
2	5683	239542	2846
2	5694	239802	2725
2	5700	240129	2636
2	5710	240513	2592
2	5727	241152	2433
2	5730	241482	3131
2	5744	241808	2317
2	5750	242278	3166
2	5767	242908	3041
2	5770	243014	2695
2	5780	243691	3011
2	5790	243884	2829
2	5800	244430	2904
2	5810	244882	2898
2	5824	245134	2671
2	5833	245869	2986
2	5843	246304	2975
2	5861	246878	3173
2	5864	247023	2857
2	5870	247415	2824
2	5887	248053	2685
2	5890	248258	3284
2	5900	248591	2799
2	5914	249018	2855
2	5917	249020	2423
2	5933	249898	2376
2	5943	250385	3308
2	5950	250413	2514
2	5967	251294	2954
2	5977	251830	3093
2	5987	252105	2575
2	5990	252274	3115
2	6000	252610	2715
2	6013	253120	2780
2	6023	253576	2820
2	6030	253908	2790
2	6047	254502	2946
2	6057	255055	2741
2	6060	255113	3186
2	6070	255469	2786
2	6073	255596	2488
2	6097	256639	2643
2	6100	256664	3114
2	6110	257175	2775
2	6120	257598	2814
2	6130	257794	2576
2	6137	258046	2432
2	6154	258954	2915
2	6160	259161	2309
2	6170	259462	3053
2	6176	259874	2565
2	6194	260562	2818
2	6197	260604	2457
2	6221	261659	3040
2	6224	261787	2793
2	6230	262126	2740
2	6240	262411	2617
2	6250	262848	2588
2	6253	262957	2312
2	6277	264078	3036
2	6287	264541	2241
2	6290	264642	3177
2	6296	264795	2894
2	6313	265653	2906
2	6327	266170	2643
2	6330	266228	3081
2	6333	266352	2451
2	6357	267427	2709
2	6360	267449	3131
2	6377	268369	3231
2	6387	268724	3155
2	6390	268778	2762
2	6400	269181	2691
2	6417	269880	2930
2	6431	270352	3040
2	6437	270663	2881
2	6440	270828	2594
2	6454	271321	2713
2	6460	271790	2801
2	6470	272124	2764
2	6480	272503	2369
2	6487	272719	2955
2	6500	273424	2817
2	6506	273596	2585
2	6516	274108	2691
2	6530	274772	2888
2	6544	275279	2959
2	6550	275523	2726
2	6560	275781	2609
2	6570	276454	2904
2	6580	276707	2700
2	6587	276978	2563

