version 2
run Iteration-7-20220517-20:06:27-3228
attr configname Iteration
attr datetime 20220517-20:06:27
attr experiment Iteration
attr inifile omnetpp.ini
attr iterationvars "$i=8, $0=12-8"
attr iterationvarsf i=8,12-8-
attr measurement "$i=8, $0=12-8"
attr network Network
attr processid 3228
attr repetition 0
attr replication #0
attr resultdir results
attr runnumber 7
attr seedset 7
itervar i 8
param **.resource_ordering.amount 8
param **.resource_delivery.amount 12-8
param **.source.interArrivalTime uniform(8min,6min)
param **.allocate_ordering.resourceModuleName "\"resource_ordering\""
param **.delay_ordering.delay uniform(24min,16min)
param **.deallocate_ordering.resourceModuleName "\"resource_ordering\""
param **.allocate_delivery.resourceModuleName "\"resource_delivery\""
param **.delay_delivery.delay uniform(32min,20min)
param **.deallocate_delivery.resourceModuleName "\"resource_delivery\""

vector 0 Network.allocate_ordering queueLength:vector ETV
attr interpolationmode sample-hold
attr title "queue length, vector"
vector 1 Network.allocate_delivery queueLength:vector ETV
attr interpolationmode sample-hold
attr title "queue length, vector"
vector 2 Network.sinkStat lifeTime:vector ETV
attr interpolationmode none
attr title "lifetime of arrived jobs, vector"
attr unit s
0	0	0	0
1	0	0	0
1	90	5212	1
1	96	5601	2
1	98	5619	1
1	106	6056	2
1	108	6081	1
1	116	6437	2
1	118	6438	1
1	122	6600	0
1	183	9246	1
1	185	9406	0
1	213	10534	1
1	215	10644	0
1	230	11111	1
1	235	11347	0
1	250	12051	1
1	255	12317	0
1	260	12432	1
1	262	12526	0
1	280	13281	1
1	286	13590	2
1	288	13674	1
1	292	13675	0
1	323	15054	1
1	325	15127	0
1	350	16102	1
1	352	16246	0
1	410	18570	1
1	412	18736	0
1	450	20380	1
1	455	20529	0
1	460	20844	1
1	465	21025	0
1	470	21326	1
1	475	21416	0
1	480	21648	1
1	482	21733	0
1	490	21909	1
1	492	21918	0
1	510	22936	1
1	512	22976	0
1	540	24133	1
1	542	24311	0
1	600	26618	1
1	602	26637	0
1	610	27127	1
1	612	27132	0
1	620	27540	1
1	622	27611	0
1	660	29219	1
1	665	29412	0
1	710	31236	1
1	715	31678	0
1	723	32032	1
1	726	32115	0
1	763	33585	1
1	765	33596	0
1	770	33830	1
1	775	34061	0
1	793	34781	1
1	795	34937	0
1	803	35247	1
1	805	35465	0
1	820	35856	1
1	826	36253	2
1	828	36301	1
1	836	36606	2
1	838	36629	1
1	848	37270	0
1	873	38118	1
1	876	38218	2
1	881	38472	1
1	885	38577	0
1	913	39785	1
1	916	39914	2
1	918	39956	1
1	922	39963	0
1	930	40368	1
1	935	40725	0
1	970	42000	1
1	975	42218	0
1	983	42610	1
1	985	42658	0
1	993	43044	1
1	995	43166	0
1	1000	43245	1
1	1005	43494	0
1	1010	43565	1
1	1012	43649	0
1	1020	44207	1
1	1025	44297	0
1	1030	44493	1
1	1035	44872	0
1	1040	44894	1
1	1045	45078	0
1	1073	46308	1
1	1075	46374	0
1	1110	47754	1
1	1112	47838	0
1	1120	48351	1
1	1122	48427	0
1	1140	49078	1
1	1142	49230	0
1	1160	49850	1
1	1162	49925	0
1	1200	51521	1
1	1202	51585	0
1	1213	52195	1
1	1215	52205	0
1	1223	52663	1
1	1225	52758	0
1	1233	52992	1
1	1235	53180	0
1	1260	53933	1
1	1268	54559	0
1	1273	54581	1
1	1276	54794	2
1	1281	55003	1
1	1286	55155	2
1	1291	55403	1
1	1295	55528	0
1	1300	55652	1
1	1305	55844	0
1	1313	56218	1
1	1319	56793	2
1	1321	56816	1
1	1325	56825	0
1	1333	57135	1
1	1336	57188	2
1	1338	57305	1
1	1342	57306	0
1	1350	57929	1
1	1355	58070	0
1	1380	59059	1
1	1382	59221	0
1	1460	62477	1
1	1462	62764	0
1	1480	63496	1
1	1482	63571	0
1	1540	65869	1
1	1542	66136	0
1	1550	66436	1
1	1552	66509	0
1	1583	67862	1
1	1585	67873	0
1	1653	70685	1
1	1655	70758	0
1	1660	70808	1
1	1662	71101	0
1	1733	73983	1
1	1736	74107	2
1	1738	74265	1
1	1745	74597	0
1	1750	74605	1
1	1752	74679	0
1	1760	74900	1
1	1765	75408	0
1	1790	76153	1
1	1792	76294	0
1	1800	76626	1
1	1802	76772	0
1	1820	77495	1
1	1822	77504	0
1	1850	78825	1
1	1852	78952	0
1	1883	80189	1
1	1885	80340	0
1	1913	81431	1
1	1915	81473	0
1	1950	83014	1
1	1955	83148	0
1	1980	84190	1
1	1982	84340	0
1	2010	85473	1
1	2012	85691	0
1	2020	85806	1
1	2022	85815	0
1	2030	86233	1
1	2035	86642	0
1	2070	88111	1
1	2075	88230	0
1	2080	88392	1
1	2082	88415	0
1	2130	90614	1
1	2135	90781	0
1	2143	91277	1
1	2145	91435	0
1	2153	91668	1
1	2155	91772	0
1	2170	92150	1
1	2172	92198	0
1	2180	92952	1
1	2186	93090	2
1	2188	93237	1
1	2195	93468	0
1	2200	93533	1
1	2202	93619	0
1	2223	94815	1
1	2226	94976	2
1	2228	95040	1
1	2235	95052	0
1	2240	95312	1
1	2242	95343	0
1	2250	95691	1
1	2255	95974	0
1	2260	96177	1
1	2262	96259	0
1	2270	96596	1
1	2275	96878	0
1	2340	99564	1
1	2342	99655	0
1	2360	100375	1
1	2365	101020	0
1	2393	101933	1
1	2395	101990	0
1	2400	102230	1
1	2402	102242	0
1	2430	103218	1
1	2432	103573	0
1	2460	104624	1
1	2465	104950	0
1	2490	105841	1
1	2492	106055	0
1	2500	106365	1
1	2502	106515	0
1	2550	108476	1
1	2555	108846	0
1	2580	109773	1
1	2582	109850	0
1	2603	110931	1
1	2605	110952	0
1	2660	113234	1
1	2662	113253	0
1	2670	113575	1
1	2676	113883	2
1	2678	114066	1
1	2682	114084	0
1	2690	114607	1
1	2695	114815	0
1	2720	115787	1
1	2722	115894	0
1	2740	116631	1
1	2742	116751	0
1	2790	118738	1
1	2795	119019	0
1	2840	120895	1
1	2845	121313	0
1	2860	121885	1
1	2863	122077	0
1	2880	122631	1
1	2882	122768	0
1	2933	125043	1
1	2935	125175	0
1	2950	125739	1
1	2952	125758	0
1	2960	126176	1
1	2965	126577	0
1	2970	126618	1
1	2972	126772	0
1	2980	127197	1
1	2985	127307	0
1	3000	127837	1
1	3005	128202	0
1	3040	129562	1
1	3042	129669	0
1	3060	130663	1
1	3062	130698	0
1	3070	130976	1
1	3072	130980	0
1	3123	133205	1
1	3125	133446	0
1	3140	133753	1
1	3145	134155	0
1	3160	134657	1
1	3162	134752	0
1	3173	135262	1
1	3175	135311	0
1	3190	135828	1
1	3192	136064	0
1	3200	136521	1
1	3205	136629	0
1	3210	136718	1
1	3212	136834	0
1	3230	137788	1
1	3235	137958	0
1	3283	139866	1
1	3285	139900	0
1	3290	140048	1
1	3292	140183	0
1	3320	141406	1
1	3325	141629	0
1	3350	142714	1
1	3352	142829	0
1	3380	143969	1
1	3382	144008	0
1	3400	144855	1
1	3405	144957	0
1	3420	145628	1
1	3422	145668	0
1	3453	147021	1
1	3456	147164	2
1	3458	147177	1
1	3462	147209	0
1	3513	149470	1
1	3515	149632	0
1	3550	151154	1
1	3555	151239	0
1	3590	152679	1
1	3592	152748	0
1	3613	153752	1
1	3615	153816	0
1	3650	155213	1
1	3655	155568	0
1	3690	156797	1
1	3695	156990	0
1	3703	157478	1
1	3706	157566	2
1	3708	157692	1
1	3715	157738	0
1	3720	157928	1
1	3722	158057	0
1	3743	159053	1
1	3746	159274	2
1	3748	159299	1
1	3755	159355	0
1	3800	161243	1
1	3802	161371	0
1	3820	161992	1
1	3825	162387	0
1	3830	162444	1
1	3835	162763	0
1	3840	162819	1
1	3842	162835	0
1	3860	163720	1
1	3862	163872	0
1	3890	165268	1
1	3895	165377	0
1	3900	165583	1
1	3902	165589	0
1	3913	166212	1
1	3915	166251	0
1	3920	166307	1
1	3925	166508	0
1	3933	166964	1
1	3935	167167	0
1	3953	167804	1
1	3956	167888	2
1	3958	167977	1
1	3962	168018	0
1	3980	168694	1
1	3982	168863	0
1	4000	169521	1
1	4002	169547	0
1	4080	172800	1
1	4082	173012	0
1	4090	173330	1
1	4095	173553	0
1	4100	173825	1
1	4105	174072	0
1	4120	174437	1
1	4125	174741	0
1	4140	175317	1
1	4146	175599	2
1	4148	175622	1
1	4155	175858	0
1	4160	176101	1
1	4165	176508	0
1	4183	177020	1
1	4188	177380	0
1	4210	178111	1
1	4216	178417	2
1	4218	178466	1
1	4225	178648	0
1	4230	178896	1
1	4235	179287	0
1	4243	179458	1
1	4245	179650	0
1	4250	179682	1
1	4255	179899	0
1	4270	180604	1
1	4275	180994	0
1	4280	181164	1
1	4286	181233	2
1	4288	181315	1
1	4295	181676	0
1	4310	182301	1
1	4315	182695	0
1	4430	187404	1
1	4435	187634	0
1	4440	187781	1
1	4442	187795	0
1	4450	188123	1
1	4452	188210	0
1	4470	188997	1
1	4475	189259	0
1	4480	189587	1
1	4485	189712	0
1	4490	189822	1
1	4492	189928	0
1	4503	190594	1
1	4505	190689	0
1	4540	192016	1
1	4542	192111	0
1	4550	192458	1
1	4552	192549	0
1	4560	192933	1
1	4562	193108	0
1	4630	195955	1
1	4632	196024	0
1	4680	198256	1
1	4682	198290	0
1	4690	198542	1
1	4695	198964	0
1	4700	198971	1
1	4702	198983	0
1	4710	199582	1
1	4712	199665	0
1	4720	199825	1
1	4722	199849	0
1	4770	201921	1
1	4772	202139	0
1	4800	203149	1
1	4805	203590	0
1	4820	204092	1
1	4822	204264	0
1	4843	205184	1
1	4845	205308	0
1	4850	205325	1
1	4852	205360	0
1	4900	207419	1
1	4905	207785	0
1	4910	207953	1
1	4916	208257	2
1	4918	208342	1
1	4922	208371	0
1	4950	209419	1
1	4955	209756	0
1	4980	210987	1
1	4982	211122	0
1	4990	211535	1
1	4995	211641	0
1	5000	211817	1
1	5002	211937	0
1	5030	213154	1
1	5035	213468	0
1	5060	214513	1
1	5062	214619	0
1	5090	215644	1
1	5092	215942	0
1	5110	216599	1
1	5112	216863	0
1	5120	217257	1
1	5125	217338	0
1	5173	219352	1
1	5175	219561	0
1	5180	219575	1
1	5185	219885	0
1	5203	220608	1
1	5205	220763	0
1	5213	220897	1
1	5215	221083	0
1	5220	221243	1
1	5225	221358	0
1	5240	221876	1
1	5242	222025	0
1	5250	222352	1
1	5255	222692	0
1	5260	222919	1
1	5265	223150	0
1	5290	224248	1
1	5295	224437	0
1	5300	224443	1
1	5302	224489	0
1	5310	224924	1
1	5312	225050	0
1	5360	226978	1
1	5365	227358	0
1	5370	227549	1
1	5372	227558	0
1	5383	228048	1
1	5385	228083	0
1	5393	228368	1
1	5395	228436	0
1	5403	228998	1
1	5405	229001	0
1	5420	229423	1
1	5422	229502	0
1	5430	229748	1
1	5435	230144	0
1	5443	230495	1
1	5446	230700	2
1	5448	230730	1
1	5455	230991	0
1	5460	231107	1
1	5462	231221	0
1	5470	231687	1
1	5475	232011	0
1	5500	232843	1
1	5502	232854	0
1	5520	233580	1
1	5522	233654	0
1	5570	235902	1
1	5575	235980	0
1	5610	237382	1
1	5612	237646	0
1	5630	238439	1
1	5636	238693	2
1	5638	238719	1
1	5645	238904	0
1	5650	239302	1
1	5655	239365	0
1	5660	239633	1
1	5665	239900	0
1	5672	240145	1
1	5676	240466	2
1	5678	240542	1
1	5685	240678	0
1	5700	241385	1
1	5702	241414	0
1	5720	241919	1
1	5722	242007	0
1	5733	242767	1
1	5735	242789	0
1	5750	243444	1
1	5755	243544	0
1	5760	243721	1
1	5762	243779	0
1	5793	245193	1
1	5795	245402	0
1	5813	245857	1
1	5816	246015	2
1	5821	246263	1
1	5825	246631	0
1	5840	246912	1
1	5842	247074	0
1	5863	248028	1
1	5865	248239	0
1	5883	248852	1
1	5885	248901	0
1	5903	249735	1
1	5906	249859	2
1	5911	250115	1
1	5915	250151	0
1	5920	250275	1
1	5925	250587	0
1	5940	251126	1
1	5945	251381	0
1	5953	251750	1
1	5955	251830	0
1	5963	252239	1
1	5965	252273	0
1	5980	252652	1
1	5985	252883	0
1	5990	253014	1
1	5992	253073	0
1	6000	253427	1
1	6006	253877	2
1	6008	254071	1
1	6015	254255	0
1	6020	254480	1
1	6025	254713	0
1	6043	255438	1
1	6049	255836	2
1	6051	255937	1
1	6055	255986	0
1	6073	256704	1
1	6075	256763	0
1	6080	256840	1
1	6086	257395	2
1	6092	257567	3
1	6094	257681	2
1	6098	257771	1
1	6105	258061	0
1	6110	258238	1
1	6115	258365	0
1	6123	258897	1
1	6125	259092	0
1	6133	259285	1
1	6135	259308	0
1	6162	260387	1
1	6166	260549	2
1	6171	260880	1
1	6175	260942	0
1	6183	261379	1
1	6188	261571	0
1	6193	261609	1
1	6195	261839	0
1	6200	261868	1
1	6206	262286	2
1	6208	262415	1
1	6215	262533	0
1	6220	262648	1
1	6225	262946	0
1	6233	263393	1
1	6236	263445	2
1	6241	263701	1
1	6246	263784	2
1	6251	264211	1
1	6256	264261	2
1	6258	264278	1
1	6266	264660	2
1	6271	264848	1
1	6279	265343	2
1	6281	265388	1
1	6285	265484	0
1	6303	266166	1
1	6306	266268	2
1	6311	266713	1
1	6315	266717	0
1	6320	266746	1
1	6325	266913	0
1	6340	267579	1
1	6349	268285	2
1	6351	268496	1
1	6355	268540	0
1	6380	269324	1
1	6385	269842	0
1	6390	269911	1
1	6396	269977	2
1	6398	270028	1
1	6405	270347	0
1	6420	270982	1
1	6425	271275	0
1	6450	272324	1
1	6455	272478	0
1	6460	272527	1
1	6462	272672	0
2	40	3129	2658
2	50	3713	2789
2	63	4317	2951
2	70	4581	2852
2	76	4699	2607
2	100	5619	3112
2	110	6081	3103
2	120	6438	3012
2	124	6600	2790
2	130	6926	2717
2	140	7432	2824
2	153	8035	3059
2	160	8263	2810
2	170	8652	2750
2	187	9406	3045
2	190	9527	2375
2	196	9719	2991
2	217	10644	3071
2	222	10853	2914
2	237	11347	2972
2	240	11617	2800
2	257	12317	3074
2	264	12526	2845
2	270	12794	2688
2	290	13674	2821
2	294	13675	3207
2	300	13953	2656
2	306	14250	2548
2	327	15127	2945
2	330	15194	2585
2	343	15952	2951
2	354	16246	2879
2	360	16472	2643
2	363	16662	2466
2	380	17481	2463
2	390	17797	3222
2	400	18274	2787
2	414	18736	2810
2	420	18901	2534
2	430	19608	2815
2	440	20099	2922
2	457	20529	2978
2	467	21025	3075
2	477	21416	2991
2	484	21733	2861
2	494	21918	2662
2	500	22399	2757
2	514	22976	2480
2	520	23208	3094
2	525	23252	2389
2	544	24311	2555
2	550	24603	3265
2	553	24758	2548
2	570	25421	2779
2	575	25614	2605
2	590	26322	2903
2	604	26637	2788
2	614	27132	2805
2	624	27611	2808
2	630	27752	2586
2	637	27948	2334
2	650	28770	2781
2	667	29412	2967
2	672	29825	3009
2	680	30211	2935
2	690	30531	2841
2	700	30924	2839
2	717	31678	3114
2	729	32115	3175
2	730	32115	2758
2	743	32657	2832
2	750	33043	2778
2	767	33596	2970
2	777	34061	2956
2	783	34458	2984
2	797	34937	3038
2	807	35465	3190
2	813	35680	3028
2	830	36301	3202
2	840	36629	3133
2	850	37270	3375
2	853	37333	3001
2	860	37517	2789
2	883	38472	3328
2	887	38577	2584
2	893	38865	3329
2	896	38899	2541
2	920	39956	2781
2	924	39963	3224
2	937	40725	2729
2	940	40755	3128
2	950	41182	2350
2	960	41403	2973
2	977	42218	2967
2	987	42658	2981
2	997	43166	3094
2	1007	43494	3057
2	1014	43649	2783
2	1027	44297	3038
2	1037	44872	2781
2	1047	45078	3430
2	1050	45083	2528
2	1060	45810	2829
2	1077	46374	2992
2	1080	46628	2797
2	1090	47052	2801
2	1096	47250	2612
2	1114	47838	2819
2	1124	48427	2963
2	1130	48684	2785
2	1144	49230	2489
2	1150	49348	3076
2	1164	49925	2794
2	1170	50455	2868
2	1176	50627	2627
2	1190	51282	2809
2	1204	51585	2702
2	1217	52205	2871
2	1227	52758	3060
2	1237	53180	3047
2	1240	53200	2692
2	1250	53694	2781
2	1270	54559	3218
2	1283	55003	3256
2	1293	55403	3252
2	1297	55528	3005
2	1307	55844	2949
2	1323	56816	3534
2	1327	56825	3127
2	1340	57305	2842
2	1344	57306	3240
2	1357	58070	2692
2	1360	58187	3276
2	1370	58507	2296
2	1384	59221	3482
2	1390	59457	2326
2	1393	59602	2925
2	1410	60256	2701
2	1417	60540	2511
2	1423	60932	2470
2	1440	61797	2954
2	1443	61848	2577
2	1464	62764	3026
2	1470	63047	2841
2	1484	63571	2562
2	1490	63641	3012
2	1500	64191	2782
2	1506	64538	2656
2	1520	64920	2609
2	1523	65221	2455
2	1544	66136	2997
2	1554	66509	2912
2	1560	66892	2821
2	1566	66987	2503
2	1587	67873	2987
2	1590	67890	2578
2	1600	68523	2736
2	1610	68668	2481
2	1620	69193	2635
2	1633	69921	2988
2	1636	69929	2572
2	1657	70758	3009
2	1664	71101	2885
2	1670	71319	2328
2	1677	71570	2971
2	1693	72347	2979
2	1696	72499	2710
2	1710	72951	2710
2	1723	73570	2897
2	1740	74265	3155
2	1747	74597	2656
2	1754	74679	3098
2	1767	75408	3098
2	1770	75474	2705
2	1780	75955	2826
2	1794	76294	2726
2	1804	76772	2476
2	1810	77087	3152
2	1824	77504	2346
2	1827	77597	2879
2	1837	78245	2672
2	1854	78952	2902
2	1860	79262	2736
2	1867	79351	2355
2	1887	80340	2496
2	1890	80383	2916
2	1900	80787	2531
2	1917	81473	2851
2	1920	81597	2614
2	1923	81729	2374
2	1940	82410	2695
2	1957	83148	2564
2	1960	83198	3016
2	1970	83748	2795
2	1984	84340	2921
2	1990	84476	2687
2	2000	85050	2836
2	2014	85691	3024
2	2024	85815	2694
2	2037	86642	3150
2	2040	86680	2738
2	2050	87314	2952
2	2060	87457	2684
2	2077	88230	2526
2	2084	88415	3166
2	2093	89075	2969
2	2100	89365	2809
2	2110	89770	2379
2	2113	89798	2803
2	2137	90781	2994
2	2147	91435	3231
2	2157	91772	3132
2	2160	91873	2842
2	2174	92198	2726
2	2190	93237	3329
2	2197	93468	2705
2	2204	93619	3240
2	2210	93935	2774
2	2230	95040	3409
2	2237	95052	2953
2	2244	95343	2789
2	2257	95974	2954
2	2264	96259	2419
2	2277	96878	3474
2	2280	97156	2906
2	2287	97236	2568
2	2293	97474	2424
2	2310	98398	2940
2	2313	98497	2572
2	2330	99145	2787
2	2344	99655	2825
2	2350	99791	2490
2	2367	101020	3311
2	2373	101096	2974
2	2380	101304	2740
2	2397	101990	3043
2	2404	102242	2892
2	2410	102656	2915
2	2420	102964	2757
2	2434	103573	2887
2	2440	103742	2694
2	2450	104238	2750
2	2467	104950	3062
2	2470	104953	2696
2	2477	105168	2458
2	2494	106055	2893
2	2504	106515	2489
2	2510	106741	3143
2	2520	107222	2835
2	2523	107381	2573
2	2540	108238	2959
2	2557	108846	2695
2	2560	108971	3214
2	2570	109448	2877
2	2584	109850	2866
2	2590	110408	2990
2	2607	110952	2610
2	2610	110968	3100
2	2620	111529	2728
2	2633	112235	2973
2	2636	112237	2612
2	2647	112360	2340
2	2664	113253	2802
2	2680	114066	3144
2	2684	114084	2770
2	2697	114815	3118
2	2700	114849	2758
2	2710	115461	2990
2	2724	115894	3040
2	2730	116421	3126
2	2744	116751	2999
2	2750	117072	2878
2	2756	117375	2707
2	2766	117749	2609
2	2780	118415	2822
2	2797	119019	2958
2	2800	119251	2334
2	2810	119652	3154
2	2820	120057	2774
2	2830	120508	2827
2	2847	121313	3159
2	2850	121409	2892
2	2866	122077	3085
2	2867	122077	2687
2	2884	122768	2914
2	2890	122993	2676
2	2900	123472	2702
2	2907	123673	2523
2	2920	124407	2796
2	2937	125175	3090
2	2940	125389	2870
2	2954	125758	2790
2	2967	126577	3214
2	2974	126772	3047
2	2987	127307	3102
2	2990	127547	2951
2	3007	128202	3200
2	3010	128279	2829
2	3020	128725	2799
2	3030	129249	2939
2	3044	129669	2888
2	3047	129757	2526
2	3064	130698	3093
2	3074	130980	2902
2	3080	131313	2769
2	3083	131405	2402
2	3103	132303	2404
2	3106	132371	2902
2	3127	133446	3146
2	3130	133447	2704
2	3147	134155	2655
2	3150	134246	3107
2	3164	134752	2871
2	3177	135311	3038
2	3180	135418	2759
2	3194	136064	2926
2	3207	136629	3039
2	3214	136834	2875
2	3220	137185	2830
2	3237	137958	3126
2	3240	138093	2885
2	3253	138719	3050
2	3256	138727	2595
2	3273	139492	2960
2	3287	139900	2907
2	3294	140183	2746
2	3300	140521	2684
2	3310	140886	2688
2	3327	141629	2606
2	3330	141772	3129
2	3340	142286	2895
2	3354	142829	2548
2	3360	143162	3320
2	3363	143267	2531
2	3384	144008	2857
2	3390	144230	2681
2	3407	144957	2977
2	3410	145082	2635
2	3424	145668	2385
2	3430	145743	2878
2	3440	146421	2766
2	3460	147177	2683
2	3464	147209	3113
2	3470	147785	2911
2	3480	148018	2762
2	3490	148612	2482
2	3500	148682	2954
2	3517	149632	3027
2	3520	149692	2703
2	3530	150211	2785
2	3540	150505	2709
2	3557	151239	3068
2	3560	151419	2799
2	3570	151771	2777
2	3573	152015	2547
2	3594	152748	2861
2	3600	153104	2760
2	3617	153816	3044
2	3620	153898	2701
2	3630	154223	2648
2	3640	154755	2712
2	3657	155568	3157
2	3663	155834	2948
2	3673	156269	2939
2	3680	156413	2715
2	3697	156990	2867
2	3710	157692	2751
2	3717	157738	3168
2	3724	158057	2734
2	3730	158321	2610
2	3750	159299	3224
2	3757	159355	2844
2	3760	159493	2602
2	3770	159800	2546
2	3780	160576	2868
2	3793	161064	2968
2	3804	161371	2823
2	3810	161594	2671
2	3827	162387	3035
2	3837	162763	2557
2	3844	162835	3075
2	3850	163313	2673
2	3864	163872	2848
2	3870	164360	2562
2	3873	164367	2966
2	3897	165377	3158
2	3904	165589	2944
2	3917	166251	3131
2	3927	166508	2921
2	3937	167167	3119
2	3940	167196	2741
2	3960	167977	3080
2	3964	168018	2707
2	3970	168385	2683
2	3984	168863	2758
2	3990	169197	2727
2	4004	169547	2644
2	4010	170112	2432
2	4020	170457	3147
2	4030	170782	2290
2	4037	170976	2878
2	4053	171791	2861
2	4056	171870	2519
2	4070	172381	2563
2	4084	173012	2770
2	4097	173553	2935
2	4107	174072	3055
2	4110	174193	2808
2	4127	174741	2951
2	4130	174881	2704
2	4150	175622	2201
2	4157	175858	3295
2	4167	176508	3472
2	4173	176622	2774
2	4190	177380	3118
2	4193	177455	2820
2	4203	177863	2834
2	4220	178466	3050
2	4227	178648	2807
2	4237	179287	3078
2	4247	179650	3080
2	4257	179899	2540
2	4260	180240	3251
2	4277	180994	3232
2	4290	181315	3125
2	4297	181676	2711
2	4300	181746	3168
2	4317	182695	3252
2	4323	182975	2707
2	4330	182995	3149
2	4340	183507	2791
2	4350	184139	2963
2	4360	184358	2723
2	4366	184660	2589
2	4380	185202	2747
2	4390	185663	2789
2	4400	186029	2692
2	4410	186540	2734
2	4420	186845	2661
2	4437	187634	2635
2	4444	187795	3187
2	4454	188210	2333
2	4460	188466	3013
2	4477	189259	2929
2	4487	189712	2996
2	4494	189928	2766
2	4507	190689	2795
2	4510	190714	3183
2	4517	190994	2694
2	4523	191418	2680
2	4544	192111	2427
2	4554	192549	3338
2	4564	193108	2946
2	4570	193473	2429
2	4573	193597	3031
2	4583	193831	2355
2	4603	194982	3109
2	4613	195403	2616
2	4616	195445	3118
2	4634	196024	2807
2	4640	196413	2742
2	4650	196937	2382
2	4653	197034	2897
2	4670	197511	2579
2	4684	198290	2917
2	4697	198964	2733
2	4704	198983	3199
2	4714	199665	2623
2	4724	199849	3178
2	4732	200487	3057
2	4740	200555	2656
2	4747	200896	2546
2	4760	201663	2838
2	4774	202139	2871
2	4780	202385	2717
2	4790	202827	2702
2	4807	203590	3103
2	4810	203609	2678
2	4824	204264	2482
2	4830	204632	3265
2	4847	205308	2666
2	4854	205360	3188
2	4860	205591	2472
2	4870	206302	2729
2	4880	206554	2602
2	4890	207123	2800
2	4907	207785	3061
2	4920	208342	3205
2	4924	208371	2808
2	4930	208612	2621
2	4940	209076	2669
2	4957	209756	2981
2	4960	209846	2631
2	4963	210029	2437
2	4984	211122	3075
2	4997	211641	3186
2	5004	211937	2705
2	5007	211990	3173
2	5020	212862	3155
2	5037	213468	3283
2	5040	213566	2432
2	5047	213590	2926
2	5064	214619	3027
2	5070	214908	2851
2	5073	214992	2469
2	5094	215942	2944
2	5097	215949	2564
2	5114	216863	3035
2	5127	217338	2693
2	5130	217672	2614
2	5133	217707	3472
2	5150	218281	2758
2	5160	218555	2556
2	5177	219561	3102
2	5187	219885	2573
2	5190	219950	3051
2	5207	220763	3028
2	5217	221083	2970
2	5227	221358	2859
2	5230	221485	2550
2	5244	222025	2702
2	5257	222692	2998
2	5267	223150	3003
2	5270	223195	2320
2	5273	223248	2736
2	5297	224437	3132
2	5304	224489	2754
2	5314	225050	2457
2	5320	225392	3191
2	5330	225759	2307
2	5343	226348	3325
2	5350	226542	2635
2	5367	227358	2615
2	5374	227558	3277
2	5387	228083	2961
2	5397	228436	2943
2	5407	229001	2688
2	5413	229248	3307
2	5424	229502	2744
2	5437	230144	3002
2	5450	230730	3171
2	5457	230991	3036
2	5464	231221	2870
2	5477	232011	3243
2	5483	232234	3087
2	5490	232386	2791
2	5504	232854	2804
2	5510	233272	2792
2	5524	233654	2289
2	5530	233975	3019
2	5533	234204	2438
2	5550	234902	2299
2	5553	234937	2748
2	5577	235980	2590
2	5580	236314	3311
2	5590	236705	2840
2	5600	237205	2953
2	5614	237646	2934
2	5620	237761	2636
2	5640	238719	3140
2	5647	238904	2951
2	5657	239365	2973
2	5667	239900	3081
2	5680	240542	3261
2	5687	240678	2990
2	5693	241072	2995
2	5704	241414	2930
2	5710	241753	2903
2	5724	242007	2694
2	5737	242789	3086
2	5743	243181	3036
2	5757	243544	2958
2	5764	243779	2826
2	5770	244079	2654
2	5780	244513	2626
2	5797	245402	3145
2	5800	245407	2713
2	5823	246263	3193
2	5827	246631	2779
2	5833	246768	3292
2	5844	247074	2851
2	5850	247465	2822
2	5867	248239	3205
2	5870	248310	2892
2	5887	248901	3103
2	5890	249091	2890
2	5913	250115	2970
2	5917	250151	3484
2	5927	250587	3021
2	5930	250750	2752
2	5947	251381	2984
2	5957	251830	2992
2	5967	252273	2700
2	5973	252464	3251
2	5987	252883	2851
2	5994	253073	2660
2	6010	254071	3261
2	6017	254255	3047
2	6027	254713	3094
2	6030	254841	2858
2	6053	255937	2619
2	6057	255986	3596
2	6060	256149	3308
2	6077	256763	3013
2	6096	257681	3555
2	6100	257771	3232
2	6107	258061	3080
2	6117	258365	2999
2	6127	259092	3277
2	6137	259308	3086
2	6140	259401	2818
2	6150	259874	2844
2	6173	260880	2903
2	6177	260942	3433
2	6190	261571	3230
2	6197	261839	3115
2	6210	262415	3295
2	6217	262533	3013
2	6227	262946	2946
2	6243	263701	3314
2	6253	264211	3030
2	6260	264278	3526
2	6273	264848	3286
2	6283	265388	3397
2	6287	265484	3068
2	6290	265528	2726
2	6313	266713	2649
2	6317	266717	3482
2	6327	266913	3282
2	6333	267479	3054
2	6353	268496	3662
2	6357	268540	3287
2	6363	268651	3003
2	6370	268899	2823
2	6387	269842	2952
2	6400	270028	3546
2	6407	270347	2988
2	6410	270370	2604
2	6427	271275	3130
2	6430	271282	2710
2	6440	271629	2643
2	6457	272478	2546
2	6464	272672	3216
2	6467	272754	2412
2	6483	273740	2984
2	6490	273783	2641
2	6500	274234	2702
2	6506	274535	2555
2	6520	275105	2211
2	6530	275442	2989
2	6540	275926	2595
2	6553	276661	2963
2	6560	276892	2775

