version 2
run Iteration-0-20220517-20:06:25-9136
attr configname Iteration
attr datetime 20220517-20:06:25
attr experiment Iteration
attr inifile omnetpp.ini
attr iterationvars "$i=1, $0=12-1"
attr iterationvarsf i=1,12-1-
attr measurement "$i=1, $0=12-1"
attr network Network
attr processid 9136
attr repetition 0
attr replication #0
attr resultdir results
attr runnumber 0
attr seedset 0
itervar i 1
param **.resource_ordering.amount 1
param **.resource_delivery.amount 12-1
param **.source.interArrivalTime uniform(8min,6min)
param **.allocate_ordering.resourceModuleName "\"resource_ordering\""
param **.delay_ordering.delay uniform(24min,16min)
param **.deallocate_ordering.resourceModuleName "\"resource_ordering\""
param **.allocate_delivery.resourceModuleName "\"resource_delivery\""
param **.delay_delivery.delay uniform(32min,20min)
param **.deallocate_delivery.resourceModuleName "\"resource_delivery\""

vector 0 Network.allocate_ordering queueLength:vector ETV
attr interpolationmode sample-hold
attr title "queue length, vector"
vector 1 Network.allocate_delivery queueLength:vector ETV
attr interpolationmode sample-hold
attr title "queue length, vector"
vector 2 Network.sinkStat lifeTime:vector ETV
attr interpolationmode none
attr title "lifetime of arrived jobs, vector"
attr unit s
0	0	0	0
0	5	823	1
0	7	1202	2
0	9	1511	1
0	14	1610	2
0	16	1988	3
0	18	2417	4
0	20	2539	3
0	25	2822	4
0	30	3249	5
0	32	3622	6
0	34	3669	5
0	39	4095	6
0	44	4529	7
0	46	4646	6
0	51	4946	7
0	53	5379	8
0	58	5748	9
0	60	5856	8
0	68	6219	9
0	70	6697	10
0	72	7133	11
0	74	7134	10
0	79	7513	11
0	84	7976	12
0	86	8115	11
0	91	8352	12
0	96	8775	13
0	98	9137	12
0	103	9161	13
0	108	9555	14
0	110	9965	15
0	112	10251	14
0	117	10428	15
0	119	10817	16
0	124	11234	17
0	126	11433	16
0	134	11682	17
0	136	12107	18
0	138	12561	19
0	140	12784	18
0	148	12973	19
0	150	13435	20
0	152	13842	21
0	154	14159	20
0	159	14295	21
0	161	14662	22
0	166	15034	23
0	168	15303	22
0	173	15460	23
0	178	15888	24
0	180	16284	25
0	182	16570	24
0	187	16752	25
0	192	17152	26
0	194	17552	27
0	199	17981	26
0	204	18011	27
0	206	18453	28
0	208	18860	29
0	210	19296	30
0	212	19359	29
0	220	19737	30
0	222	20141	31
0	224	20502	32
0	226	20525	31
0	231	20867	32
0	236	21322	33
0	238	21683	34
0	240	21916	33
0	248	22085	34
0	250	22509	35
0	252	22932	36
0	254	23077	35
0	259	23383	36
0	264	23822	37
0	266	24218	36
0	271	24221	37
0	273	24684	38
0	278	25071	39
0	280	25343	38
0	285	25452	39
0	287	25857	40
0	292	26236	41
0	294	26704	42
0	296	26776	41
0	301	27067	42
0	306	27491	43
0	308	27747	42
0	313	27854	43
0	318	28280	44
0	320	28755	45
0	322	29160	44
0	327	29182	45
0	332	29648	46
0	334	30092	47
0	339	30464	46
0	344	30514	47
0	346	30888	48
0	348	31318	49
0	350	31573	48
0	355	31688	49
0	357	32085	50
0	362	32497	51
0	364	32945	52
0	366	32982	51
0	374	33364	52
0	376	33733	53
0	378	34144	54
0	380	34171	53
0	388	34614	54
0	390	35093	55
0	392	35165	54
0	397	35493	55
0	402	35895	56
0	404	36201	55
0	409	36274	56
0	411	36732	57
0	416	37164	58
0	418	37502	57
0	423	37578	58
0	428	37959	59
0	430	38438	60
0	432	38900	61
0	434	38932	60
0	439	39299	61
0	444	39695	62
0	446	40060	63
0	448	40099	62
0	453	40488	63
0	458	40899	64
0	460	41308	65
0	462	41420	64
0	470	41680	65
0	472	42046	66
0	474	42444	67
0	476	42585	66
0	481	42870	67
0	486	43233	68
0	488	43677	69
0	490	43809	68
0	498	44065	69
0	500	44497	70
0	502	44858	69
0	507	44896	70
0	509	45306	71
0	514	45748	72
0	516	45875	71
0	521	46112	72
0	523	46505	73
0	528	46906	74
0	530	46983	73
0	535	47322	74
0	540	47725	75
0	542	47964	74
0	547	48158	75
0	549	48565	76
0	554	48988	77
0	556	49201	76
0	561	49412	77
0	566	49813	78
0	568	50258	79
0	570	50496	78
0	578	50692	79
0	580	51067	80
0	582	51531	81
0	584	51639	80
0	592	51999	81
0	594	52437	82
0	596	52846	83
0	598	52936	82
0	603	53260	83
0	608	53662	84
0	610	54100	83
0	615	54103	84
0	617	54475	85
0	622	54938	86
0	624	55311	87
0	626	55333	86
0	631	55760	87
0	636	56156	88
0	638	56386	87
0	643	56624	88
0	648	57062	89
0	650	57486	90
0	655	57778	89
0	660	57846	90
0	662	58321	91
0	664	58782	92
0	666	58784	91
0	674	59201	92
0	676	59588	93
0	678	59929	92
0	683	59966	93
0	685	60397	94
0	690	60809	95
0	692	60954	94
0	697	61240	95
0	702	61602	96
0	704	62037	97
0	706	62378	96
0	711	62463	97
0	716	62937	98
0	718	63373	99
0	720	63616	98
0	725	63736	99
0	730	64188	100
0	732	64580	101
0	737	64970	102
0	739	65048	101
0	744	65409	102
0	746	65882	103
0	748	66238	102
0	753	66321	103
0	758	66799	104
0	760	67184	105
0	762	67582	104
0	767	67608	105
0	772	68047	106
0	774	68454	107
0	776	68849	108
0	781	68915	107
0	786	69257	108
0	788	69717	109
0	790	70137	110
0	795	70340	109
0	800	70542	110
0	802	70993	111
0	804	71354	112
0	806	71503	111
0	811	71722	112
0	816	72121	113
0	818	72497	114
0	820	72815	113
0	825	72906	114
0	830	73270	115
0	832	73713	116
0	834	73895	115
0	839	74126	116
0	844	74581	117
0	846	75039	118
0	848	75144	117
0	853	75493	118
0	858	75884	119
0	860	76131	118
0	865	76248	119
0	870	76697	120
0	872	77170	121
0	874	77462	120
0	882	77643	121
0	884	78006	122
0	886	78441	123
0	888	78693	122
0	893	78847	123
0	898	79324	124
0	900	79715	125
0	902	80047	124
0	907	80113	125
0	912	80512	126
0	914	80919	127
0	916	81257	126
0	921	81291	127
0	926	81715	128
0	928	82140	129
0	930	82354	128
0	938	82540	129
0	940	82992	130
0	942	83359	129
0	947	83381	130
0	949	83752	131
0	954	84186	132
0	956	84376	131
0	961	84627	132
0	963	85032	133
0	968	85417	132
0	973	85512	133
0	978	85941	134
0	980	86315	135
0	982	86707	134
0	987	86773	135
0	992	87198	136
0	994	87620	137
0	996	87821	136
0	1004	88074	137
0	1006	88466	138
0	1008	88840	139
0	1010	88882	138
0	1018	89290	139
0	1020	89713	140
0	1022	90171	139
0	1027	90190	140
0	1032	90652	141
0	1034	91081	142
0	1036	91269	141
0	1041	91473	142
0	1043	91897	143
0	1048	92351	144
0	1050	92529	143
0	1058	92727	144
0	1060	93174	145
0	1062	93610	144
0	1067	93638	145
0	1069	94033	146
0	1074	94465	147
0	1076	94844	148
0	1078	94966	147
0	1086	95302	148
0	1088	95723	149
0	1090	96188	150
0	1092	96308	149
0	1097	96625	150
0	1102	97101	151
0	1104	97401	150
0	1109	97491	151
0	1114	97863	152
0	1116	98253	153
0	1118	98482	152
0	1123	98667	153
0	1125	99142	154
0	1130	99507	155
0	1132	99571	154
0	1137	99962	155
0	1142	100413	156
0	1144	100871	155
0	1149	100885	156
0	1151	101253	157
0	1156	101732	158
0	1158	102112	159
0	1160	102303	158
0	1168	102498	159
0	1170	102956	160
0	1172	103271	159
0	1177	103428	160
0	1179	103838	161
0	1184	104201	162
0	1186	104465	161
0	1191	104626	162
0	1196	104992	163
0	1198	105359	164
0	1203	105753	165
0	1205	105794	164
0	1210	106175	165
0	1212	106550	166
0	1214	106931	165
0	1219	106970	166
0	1224	107348	167
0	1226	107754	168
0	1228	108141	169
0	1230	108230	168
0	1238	108619	169
0	1240	109081	170
0	1242	109202	169
0	1247	109467	170
0	1249	109890	171
0	1254	110171	170
0	1259	110280	171
0	1264	110728	172
0	1266	111159	173
0	1268	111609	172
0	1273	111623	173
0	1278	112067	174
0	1280	112524	175
0	1282	112843	174
0	1290	112956	175
0	1292	113318	176
0	1294	113786	177
0	1296	114038	176
0	1301	114217	177
0	1303	114580	178
0	1308	115019	179
0	1310	115064	178
0	1315	115404	179
0	1320	115791	180
0	1322	116069	179
0	1327	116231	180
0	1329	116675	181
0	1334	117106	182
0	1336	117317	181
0	1341	117475	182
0	1346	117949	183
0	1348	118342	184
0	1350	118693	183
0	1355	118820	184
0	1360	119208	185
0	1362	119670	186
0	1364	120044	187
0	1366	120128	186
0	1374	120514	187
0	1376	120913	188
0	1378	121312	189
0	1380	121448	188
0	1385	121695	189
0	1390	122125	190
0	1392	122538	191
0	1394	122770	190
0	1399	122918	191
0	1404	123311	192
0	1406	123775	193
0	1408	123797	192
0	1413	124184	193
0	1418	124628	194
0	1420	125055	195
0	1422	125210	194
0	1430	125452	195
0	1432	125880	196
0	1434	126241	195
0	1439	126314	196
0	1441	126733	197
0	1446	127118	198
0	1448	127284	197
0	1453	127591	198
0	1458	128046	199
0	1460	128407	198
0	1465	128433	199
0	1470	128892	200
0	1472	129371	201
0	1474	129520	200
0	1479	129818	201
0	1484	130282	202
0	1486	130532	201
0	1491	130668	202
0	1493	131143	203
0	1498	131537	204
0	1500	131751	203
0	1508	131958	204
0	1510	132332	205
0	1512	132775	206
0	1514	133154	205
0	1519	133196	206
0	1524	133561	207
0	1526	133984	208
0	1528	134317	207
0	1533	134460	208
0	1538	134873	209
0	1540	135289	210
0	1542	135381	209
0	1547	135752	210
0	1552	136199	211
0	1554	136494	210
0	1559	136640	211
0	1564	137005	212
0	1566	137469	213
0	1568	137746	212
0	1573	137841	213
0	1578	138310	214
0	1580	138681	215
0	1582	138908	214
0	1587	139055	215
0	1592	139439	216
0	1594	139908	217
0	1596	140280	218
0	1598	140308	217
0	1606	140709	218
0	1608	141105	219
0	1610	141417	218
0	1615	141515	219
0	1620	141904	220
0	1622	142308	221
0	1625	142700	220
0	1626	142700	221
0	1634	143151	222
0	1636	143535	223
0	1638	143772	222
0	1643	143978	223
0	1645	144403	224
0	1650	144752	223
0	1655	144823	224
0	1657	145248	225
0	1662	145716	226
0	1664	145780	225
0	1669	146127	226
0	1674	146588	227
0	1676	146806	226
0	1681	146949	227
0	1686	147410	228
0	1688	147842	229
0	1690	147855	228
0	1695	148208	229
0	1697	148637	230
0	1702	149063	231
0	1707	149265	230
0	1712	149456	231
0	1714	149899	232
0	1716	150264	233
0	1718	150349	232
0	1723	150730	233
0	1728	151167	234
0	1730	151618	233
0	1735	151645	234
0	1740	152024	235
0	1742	152440	236
0	1744	152803	235
0	1749	152808	236
0	1751	153215	237
0	1756	153582	238
0	1758	153916	237
0	1763	154052	238
0	1765	154458	239
0	1770	154837	240
0	1772	155244	239
0	1777	155254	240
0	1782	155683	241
0	1784	156155	242
0	1786	156570	243
0	1788	156677	242
0	1796	157020	243
0	1798	157407	244
0	1800	157871	245
0	1802	158101	244
0	1807	158306	245
0	1812	158772	246
0	1814	159135	247
0	1816	159535	246
0	1821	159570	247
0	1826	160001	248
0	1828	160381	249
0	1830	160500	248
0	1835	160784	249
0	1837	161187	250
0	1842	161548	251
0	1844	161553	250
0	1849	162020	251
0	1854	162404	252
0	1856	162802	253
0	1858	162843	252
0	1866	163202	253
0	1868	163602	254
0	1870	163971	255
0	1872	164100	254
0	1877	164389	255
0	1882	164809	256
0	1884	165130	255
0	1889	165238	256
0	1891	165633	257
0	1896	166024	258
0	1898	166432	257
0	1903	166450	258
0	1908	166831	259
0	1910	167305	260
0	1915	167696	261
0	1917	167699	260
0	1922	168122	261
0	1924	168504	262
0	1929	168953	263
0	1931	168972	262
0	1936	169387	263
0	1938	169758	264
0	1940	169947	263
0	1945	170130	264
0	1950	170491	265
0	1952	170941	266
0	1954	171245	265
0	1959	171394	266
0	1961	171760	267
0	1966	172133	268
0	1968	172570	269
0	1970	172634	268
0	1978	172967	269
0	1980	173359	270
0	1982	173825	271
0	1984	173889	270
0	1989	174199	271
0	1994	174663	272
0	1996	175026	271
0	2001	175098	272
0	2003	175488	273
0	2008	175886	274
0	2010	176271	275
0	2012	176286	274
0	2020	176730	275
0	2022	177174	276
0	2024	177484	275
0	2029	177617	276
0	2034	178055	277
0	2036	178499	276
0	2041	178506	277
0	2046	178919	278
0	2048	179323	279
0	2050	179585	278
0	2055	179737	279
0	2060	180104	280
0	2062	180494	281
0	2064	180609	280
0	2069	180971	281
0	2074	181335	282
0	2076	181696	283
0	2078	181713	282
0	2083	182091	283
0	2088	182562	284
0	2090	182936	283
0	2095	183007	284
0	2100	183433	285
0	2102	183829	286
0	2104	184053	285
0	2109	184293	286
0	2114	184761	287
0	2116	185126	288
0	2118	185311	287
0	2123	185499	288
0	2128	185977	289
0	2130	186339	290
0	2135	186716	289
0	2140	186786	290
0	2142	187196	291
0	2144	187610	292
0	2146	187973	293
0	2148	188053	292
0	2156	188420	293
0	2158	188852	294
0	2160	189329	295
0	2162	189362	294
0	2170	189779	295
0	2172	190222	296
0	2174	190376	295
0	2179	190669	296
0	2184	191086	297
0	2186	191476	298
0	2188	191637	297
0	2196	191881	298
0	2198	192245	299
0	2200	192622	300
0	2202	192917	299
0	2207	193082	300
0	2212	193532	301
0	2214	193999	302
0	2219	194334	301
0	2224	194418	302
0	2226	194816	303
0	2228	195232	304
0	2230	195419	303
0	2235	195637	304
0	2240	196010	305
0	2242	196406	304
0	2247	196465	305
0	2252	196868	306
0	2254	197282	307
0	2256	197521	306
0	2261	197656	307
0	2266	198118	308
0	2268	198495	309
0	2270	198830	308
0	2275	198971	309
0	2280	199415	310
0	2282	199840	311
0	2284	199965	310
0	2292	200275	311
0	2294	200712	312
0	2296	201181	313
0	2298	201393	312
0	2306	201601	313
0	2308	202040	314
0	2310	202411	315
0	2312	202638	314
0	2317	202816	315
0	2319	203180	316
0	2324	203635	317
0	2326	204074	316
0	2331	204101	317
0	2336	204546	318
0	2338	204961	319
0	2340	205360	320
0	2342	205466	319
0	2350	205753	320
0	2352	206206	321
0	2354	206451	320
0	2359	206608	321
0	2361	206971	322
0	2366	207380	323
0	2368	207673	322
0	2373	207744	323
0	2378	208144	324
0	2380	208571	325
0	2382	208674	324
0	2387	208953	325
0	2389	209355	326
0	2394	209785	325
0	2399	209795	326
0	2404	210263	327
0	2406	210690	328
0	2408	210845	327
0	2416	211051	328
0	2418	211434	329
0	2420	211903	330
0	2422	212035	329
0	2427	212328	330
0	2432	212759	331
0	2434	213164	332
0	2439	213366	331
0	2444	213538	332
0	2446	213979	333
0	2448	214384	332
0	2453	214443	333
0	2458	214858	334
0	2460	215233	335
0	2465	215630	334
0	2470	215638	335
0	2472	216103	336
0	2474	216472	337
0	2476	216810	336
0	2481	216870	337
0	2486	217234	338
0	2488	217604	339
0	2490	217852	338
0	2495	218070	339
0	2500	218529	340
0	2502	218962	341
0	2504	219275	340
0	2509	219412	341
0	2514	219856	342
0	2516	220258	341
0	2521	220266	342
0	2523	220692	343
0	2528	221143	344
0	2530	221273	343
0	2535	221604	344
0	2540	222044	345
0	2542	222471	346
0	2544	222643	345
0	2552	222876	346
0	2554	223247	347
0	2556	223697	348
0	2558	224046	347
0	2563	224072	348
0	2568	224545	349
0	2570	225018	350
0	2572	225441	351
0	2574	225467	350
0	2582	225812	351
0	2584	226184	352
0	2586	226641	353
0	2588	226819	352
0	2596	227040	353
0	2598	227483	354
0	2600	227916	353
0	2605	227925	354
0	2610	228362	355
0	2612	228786	356
0	2614	228877	355
0	2619	229188	356
0	2621	229550	357
0	2626	229914	358
0	2628	230135	357
0	2633	230314	358
0	2635	230712	359
0	2640	231168	360
0	2642	231418	359
0	2647	231600	360
0	2652	232051	361
0	2654	232469	362
0	2656	232722	361
0	2664	232897	362
0	2666	233337	363
0	2668	233765	364
0	2673	233985	363
0	2678	234129	364
0	2680	234530	365
0	2682	234969	366
0	2684	235255	365
0	2689	235371	366
0	2691	235772	367
0	2696	236204	368
0	2698	236411	367
0	2706	236679	368
0	2708	237072	369
0	2710	237371	368
0	2715	237439	369
0	2720	237821	370
0	2722	238184	371
0	2724	238505	370
0	2729	238596	371
0	2734	238984	372
0	2736	239431	373
0	2738	239518	372
0	2746	239871	373
0	2748	240322	374
0	2750	240786	375
0	2752	240919	374
0	2757	241214	375
0	2762	241589	376
0	2764	241954	377
0	2766	242234	376
0	2771	242382	377
0	2776	242849	378
0	2778	243259	379
0	2780	243618	378
0	2785	243668	379
0	2790	244035	380
0	2792	244509	381
0	2794	244608	380
0	2799	244877	381
0	2804	245250	382
0	2806	245636	383
0	2808	245762	382
0	2816	246070	383
0	2818	246468	384
0	2820	246925	385
0	2822	247100	384
0	2827	247326	385
0	2832	247805	386
0	2834	248109	385
0	2839	248274	386
0	2844	248684	387
0	2846	249118	388
0	2848	249310	387
0	2853	249569	388
0	2858	249931	389
0	2860	250308	390
0	2862	250680	391
0	2864	250704	390
0	2872	251153	391
0	2874	251575	392
0	2876	252000	393
0	2878	252014	392
0	2886	252419	393
0	2888	252887	394
0	2890	252984	393
0	2898	253264	394
0	2900	253696	395
0	2902	254148	396
0	2904	254405	395
0	2909	254580	396
0	2914	255045	397
0	2916	255422	398
0	2918	255816	399
0	2920	255817	398
0	2928	256248	399
0	2930	256676	400
0	2932	256950	399
0	2937	257111	400
0	2942	257583	401
0	2944	257964	402
0	2946	258095	401
0	2951	258334	402
0	2956	258727	403
0	2958	259168	404
0	2960	259221	403
0	2968	259584	404
0	2970	259964	405
0	2972	260395	406
0	2974	260509	405
0	2979	260782	406
0	2984	261223	407
0	2986	261636	408
0	2988	261754	407
0	2993	262028	408
0	2998	262444	409
0	3000	262914	410
0	3002	263002	409
0	3007	263310	410
0	3012	263786	411
0	3014	264122	410
0	3019	264254	411
0	3024	264627	412
0	3026	264995	413
0	3028	265235	412
0	3036	265426	413
0	3038	265787	414
0	3040	266215	413
0	3045	266244	414
0	3047	266622	415
0	3052	267040	416
0	3054	267419	417
0	3056	267484	416
0	3061	267813	417
0	3066	268266	418
0	3068	268736	419
0	3070	268745	418
0	3078	269152	419
0	3080	269631	420
0	3082	270099	421
0	3084	270144	420
0	3092	270576	421
0	3094	271048	422
0	3096	271457	421
0	3101	271501	422
0	3106	271962	423
0	3108	272333	424
0	3110	272486	423
0	3115	272720	424
0	3117	273092	425
0	3122	273501	424
0	3127	273554	425
0	3129	273982	426
0	3134	274411	427
0	3136	274845	426
0	3141	274855	427
0	3146	275241	428
0	3148	275631	429
0	3150	276064	430
0	3152	276117	429
0	3157	276433	430
0	3162	276871	431
1	0	0	0
2	28	3039	2625
2	42	4182	3359
2	56	5393	4191
2	66	6157	4547
2	82	7713	5725
2	94	8494	6077
2	106	9330	6508
2	122	10972	7723
2	132	11491	7869
2	146	12796	8701
2	164	14690	10161
2	176	15801	10855
2	190	16782	11403
2	197	17792	12044
2	218	19361	13142
2	234	21251	14554
2	246	21975	14842
2	262	23654	16141
2	276	24883	16907
2	290	25910	17558
2	304	27193	18418
2	316	28064	18903
2	330	29232	19677
2	337	30375	20410
2	360	32155	21727
2	372	33337	22520
2	386	34242	23008
2	400	35891	24209
2	414	36990	24883
2	426	37930	25369
2	442	39303	26330
2	456	40658	27223
2	468	41475	27633
2	484	42880	28585
2	496	43896	29234
2	512	45432	30398
2	526	46598	31138
2	538	47371	31483
2	552	48737	32453
2	564	49438	32686
2	576	50605	33453
2	590	51877	34325
2	606	53492	35481
2	620	54832	36379
2	634	55861	37001
2	646	56866	37570
2	653	57644	37907
2	672	59073	38932
2	688	60584	40082
2	700	61268	40401
2	714	62824	41502
2	728	63778	42095
2	735	64920	42835
2	756	66616	44107
2	770	68029	45097
2	779	68872	45489
2	793	70271	46449
2	814	71757	47536
2	828	72981	48297
2	842	74209	49138
2	856	75662	50210
2	868	76654	50797
2	880	77561	51325
2	896	79031	52327
2	910	80222	53155
2	924	81640	54149
2	936	82464	54610
2	952	84084	55804
2	966	85049	56294
2	976	85922	56740
2	990	87140	57492
2	1002	87941	57849
2	1016	89059	58545
2	1030	90648	59760
2	1046	91942	60624
2	1056	92724	61036
2	1072	94364	62279
2	1084	95014	62517
2	1100	96782	63837
2	1112	97551	64187
2	1128	99254	65521
2	1140	99981	65837
2	1154	101284	66670
2	1166	102391	67298
2	1182	104020	68527
2	1194	104841	68946
2	1201	105752	69478
2	1222	107204	70472
2	1236	108243	71079
2	1252	109900	72322
2	1262	110413	72454
2	1276	111631	73193
2	1288	112937	74037
2	1306	114676	75377
2	1318	115548	75853
2	1332	116688	76628
2	1344	117931	77443
2	1358	119003	78104
2	1372	120229	78921
2	1388	121983	80303
2	1402	123057	81011
2	1416	124417	81973
2	1428	125374	82504
2	1444	126926	83693
2	1456	128031	84354
2	1468	128702	84637
2	1482	130140	85643
2	1496	131173	86277
2	1506	131786	86480
2	1522	133333	87585
2	1536	134776	88664
2	1550	135927	89422
2	1562	136833	89927
2	1576	138308	90986
2	1590	139274	91549
2	1604	140498	92340
2	1618	141887	93322
2	1632	142821	93833
2	1648	144504	95092
2	1660	145524	95711
2	1672	146270	96012
2	1684	147109	96417
2	1700	148665	97598
2	1705	149101	97570
2	1726	151161	99162
2	1738	151949	99512
2	1754	153405	100559
2	1768	154651	101391
2	1780	155665	102003
2	1794	156795	102692
2	1810	158438	103963
2	1824	159667	104729
2	1840	161422	106111
2	1852	162067	106307
2	1864	162909	106753
2	1880	164586	107962
2	1894	165715	108653
2	1906	166458	108972
2	1913	167654	109808
2	1927	168944	110623
2	1948	170390	111608
2	1964	171780	112579
2	1976	172813	113225
2	1992	174512	114546
2	2006	175613	115216
2	2018	176712	115903
2	2032	177883	116643
2	2044	178800	117198
2	2058	180057	118020
2	2072	181131	118668
2	2086	182422	119485
2	2098	183122	119749
2	2112	184746	121010
2	2126	185538	121350
2	2133	186534	121954
2	2154	188343	123373
2	2168	189645	124236
2	2182	190918	125036
2	2194	191652	125331
2	2210	193320	126521
2	2217	194188	127004
2	2238	195975	128367
2	2250	196827	128780
2	2264	198080	129626
2	2278	199050	130201
2	2290	200239	130982
2	2304	201503	131786
2	2322	203202	133065
2	2334	204357	133815
2	2348	205578	134585
2	2364	207106	135752
2	2376	207939	136217
2	2392	209581	137460
2	2402	210227	137730
2	2414	211043	138137
2	2430	212489	139219
2	2437	213360	139647
2	2456	214840	140714
2	2463	215598	141017
2	2484	217160	142121
2	2498	218523	143030
2	2512	219695	143811
2	2526	220790	144542
2	2538	221747	145050
2	2550	222717	145547
2	2566	224303	146660
2	2580	225653	147647
2	2594	226854	148413
2	2608	228358	149511
2	2624	229834	150510
2	2638	230793	151078
2	2650	231844	151731
2	2662	232882	152370
2	2671	233974	153055
2	2694	235835	154544
2	2704	236583	154868
2	2718	237622	155482
2	2732	238807	156267
2	2744	239736	156744
2	2760	241332	157951
2	2774	242463	158711
2	2788	243920	159734
2	2802	245001	160374
2	2814	245820	160788
2	2830	247576	162064
2	2842	248399	162458
2	2856	249583	163268
2	2870	251108	164335
2	2884	252285	165087
2	2896	253238	165618
2	2912	254820	166746
2	2926	255842	167376
2	2940	257462	168622
2	2954	258394	169104
2	2966	259531	169818
2	2982	261061	170871
2	2996	262227	171575
2	3010	263595	172514
2	3022	264465	172992
2	3034	265418	173521
2	3050	266778	174427
2	3064	268121	175394
2	3076	268948	175774
2	3090	270467	176829
2	3104	271960	177927
2	3120	273111	178646
2	3132	274077	179233
2	3144	274908	179606
2	3160	276714	180991

