version 2
run Iteration-10-20220517-20:06:28-13804
attr configname Iteration
attr datetime 20220517-20:06:28
attr experiment Iteration
attr inifile omnetpp.ini
attr iterationvars "$i=11, $0=12-11"
attr iterationvarsf i=11,12-11-
attr measurement "$i=11, $0=12-11"
attr network Network
attr processid 13804
attr repetition 0
attr replication #0
attr resultdir results
attr runnumber 10
attr seedset 10
itervar i 11
param **.resource_ordering.amount 11
param **.resource_delivery.amount 12-11
param **.source.interArrivalTime uniform(8min,6min)
param **.allocate_ordering.resourceModuleName "\"resource_ordering\""
param **.delay_ordering.delay uniform(24min,16min)
param **.deallocate_ordering.resourceModuleName "\"resource_ordering\""
param **.allocate_delivery.resourceModuleName "\"resource_delivery\""
param **.delay_delivery.delay uniform(32min,20min)
param **.deallocate_delivery.resourceModuleName "\"resource_delivery\""

vector 0 Network.allocate_ordering queueLength:vector ETV
attr interpolationmode sample-hold
attr title "queue length, vector"
vector 1 Network.allocate_delivery queueLength:vector ETV
attr interpolationmode sample-hold
attr title "queue length, vector"
vector 2 Network.sinkStat lifeTime:vector ETV
attr interpolationmode none
attr title "lifetime of arrived jobs, vector"
attr unit s
0	0	0	0
1	0	0	0
1	19	1967	1
1	25	2333	2
1	31	2880	3
1	36	3317	2
1	44	3487	3
1	47	3612	4
1	56	4281	5
1	59	4468	6
1	65	4801	7
1	70	5115	6
1	78	5655	7
1	81	5793	8
1	87	6089	9
1	93	6506	10
1	98	6892	9
1	106	7188	10
1	109	7262	11
1	115	7753	12
1	124	8443	13
1	126	8717	12
1	134	8762	13
1	137	9004	14
1	143	9526	15
1	149	9899	16
1	151	10042	15
1	159	10417	16
1	165	10797	17
1	171	11214	18
1	179	11921	17
1	184	11983	18
1	187	12078	19
1	196	12630	20
1	199	12891	21
1	205	13405	22
1	210	13776	21
1	218	14009	22
1	221	14103	23
1	227	14682	24
1	233	15016	25
1	238	15245	24
1	246	15714	25
1	249	15795	26
1	255	16220	27
1	261	16709	28
1	266	16912	27
1	271	16966	28
1	277	17357	29
1	283	17979	30
1	292	18502	31
1	294	18713	30
1	302	19014	31
1	305	19141	32
1	311	19611	33
1	320	20218	34
1	322	20356	33
1	327	20468	34
1	336	21103	35
1	342	21474	36
1	345	21749	37
1	347	21846	36
1	355	22126	37
1	364	22825	38
1	370	23286	39
1	372	23371	38
1	377	23642	39
1	383	24100	40
1	389	24340	41
1	395	24906	42
1	400	25136	41
1	405	25417	42
1	411	25696	43
1	417	26289	44
1	423	26499	45
1	425	26636	44
1	433	27007	45
1	439	27365	46
1	445	27912	47
1	450	28303	46
1	455	28352	47
1	461	28693	48
1	467	29318	49
1	476	29833	50
1	478	30019	49
1	483	30168	50
1	492	30772	51
1	495	30904	52
1	501	31277	53
1	503	31532	52
1	514	31992	53
1	517	32318	54
1	523	32517	55
1	525	32747	54
1	533	33181	55
1	542	33785	56
1	545	33798	57
1	550	34350	56
1	558	34418	57
1	564	35014	58
1	567	35060	59
1	573	35557	60
1	582	36218	61
1	584	36221	60
1	589	36397	61
1	595	36706	62
1	601	37046	63
1	610	37888	64
1	612	37889	63
1	617	38115	64
1	626	38780	65
1	629	38927	66
1	635	39515	67
1	641	39681	68
1	643	39694	67
1	654	40495	68
1	657	40752	69
1	662	40976	68
1	670	41294	69
1	676	41886	70
1	682	42199	71
1	688	42506	72
1	690	42819	71
1	698	42895	72
1	704	43503	73
1	710	43851	74
1	715	44239	73
1	720	44298	74
1	726	44657	75
1	732	44934	76
1	738	45451	77
1	740	45508	76
1	748	45790	77
1	754	46294	78
1	760	46588	79
1	766	46940	80
1	768	47044	79
1	773	47192	80
1	782	47799	81
1	788	48247	82
1	791	48288	83
1	793	48332	82
1	804	48998	83
1	807	49304	84
1	816	49856	85
1	818	49944	84
1	823	50143	85
1	832	50698	86
1	835	50922	87
1	841	51295	88
1	846	51499	87
1	854	51976	88
1	857	52085	89
1	866	52806	90
1	868	52995	89
1	876	53282	90
1	879	53621	91
1	885	53904	92
1	891	54454	93
1	897	54726	94
1	899	54888	93
1	907	55215	94
1	916	55769	95
1	919	55955	96
1	927	56552	95
1	932	56682	96
1	935	56914	97
1	941	57298	98
1	950	57843	99
1	952	57910	98
1	957	58100	99
1	963	58351	100
1	969	58783	101
1	975	59416	102
1	980	59703	101
1	985	59851	102
1	991	60343	103
1	997	60648	104
1	1002	60976	103
1	1010	61488	104
1	1013	61502	105
1	1019	61937	106
1	1025	62534	107
1	1030	62602	106
1	1038	63089	107
1	1044	63462	108
1	1050	63970	109
1	1053	64226	110
1	1055	64246	109
1	1063	64395	110
1	1069	64906	111
1	1075	65410	112
1	1081	65729	113
1	1083	65753	112
1	1094	66354	113
1	1100	66847	114
1	1103	66945	115
1	1109	67505	116
1	1114	67603	115
1	1119	67674	116
1	1125	68334	117
1	1131	68839	118
1	1133	68854	117
1	1141	69069	118
1	1147	69625	119
1	1156	70081	120
1	1158	70335	119
1	1166	70728	120
1	1172	71003	121
1	1175	71263	122
1	1180	71632	121
1	1185	71757	122
1	1191	72259	123
1	1197	72530	124
1	1206	73167	125
1	1208	73502	124
1	1216	73581	125
1	1219	73871	126
1	1228	74473	127
1	1234	74932	128
1	1237	75062	129
1	1239	75132	128
1	1250	75636	129
1	1256	76084	130
1	1259	76383	131
1	1265	76787	132
1	1267	76796	131
1	1278	77380	132
1	1281	77401	133
1	1290	78119	134
1	1296	78509	135
1	1298	78628	134
1	1306	79113	135
1	1312	79525	136
1	1318	79822	137
1	1323	80263	136
1	1328	80357	137
1	1331	80555	138
1	1337	80923	139
1	1343	81294	140
1	1349	81545	141
1	1351	81773	140
1	1362	82371	141
1	1365	82611	142
1	1371	82885	143
1	1377	83336	144
1	1379	83467	143
1	1387	83691	144
1	1393	84421	145
1	1399	84674	146
1	1405	84966	147
1	1407	85115	146
1	1415	85527	147
1	1424	86192	148
1	1430	86498	149
1	1433	86684	150
1	1435	86784	149
1	1443	87207	150
1	1452	87814	151
1	1455	87897	152
1	1457	88074	151
1	1465	88317	152
1	1471	88718	153
1	1477	89307	154
1	1483	89604	155
1	1485	89812	154
1	1496	90412	155
1	1502	90853	156
1	1505	90925	157
1	1510	91211	156
1	1518	91619	157
1	1521	91879	158
1	1530	92562	159
1	1533	92704	160
1	1538	92904	159
1	1546	93304	160
1	1552	93697	161
1	1558	94071	162
1	1561	94364	163
1	1566	94547	162
1	1571	94722	163
1	1580	95450	164
1	1586	95769	165
1	1589	96173	166
1	1595	96398	167
1	1597	96404	166
1	1608	97093	167
1	1611	97333	168
1	1616	97690	167
1	1621	97705	168
1	1627	98137	169
1	1636	98861	170
1	1638	99088	169
1	1646	99304	170
1	1649	99427	171
1	1658	100144	172
1	1661	100225	173
1	1667	100553	174
1	1669	100637	173
1	1677	101069	174
1	1683	101672	175
1	1691	102176	174
1	1696	102228	175
1	1699	102438	176
1	1705	102820	177
1	1714	103330	178
1	1717	103778	179
1	1722	104066	178
1	1727	104165	179
1	1733	104409	180
1	1739	104955	181
1	1745	105482	182
1	1751	105709	183
1	1756	105971	182
1	1761	106239	183
1	1767	106750	184
1	1776	107215	185
1	1779	107521	186
1	1784	107706	185
1	1789	107833	186
1	1795	108327	187
1	1804	109001	188
1	1807	109183	189
1	1809	109193	188
1	1820	109860	189
1	1823	110107	190
1	1828	110509	189
1	1836	110664	190
1	1839	110880	191
1	1845	111212	192
1	1851	111729	193
1	1856	111844	192
1	1861	112181	193
1	1867	112385	194
1	1873	113072	195
1	1878	113158	194
1	1886	113553	195
1	1892	114073	196
1	1895	114198	197
1	1901	114595	198
1	1903	114688	197
1	1911	114993	198
1	1917	115600	199
1	1922	115958	198
1	1927	116096	199
1	1933	116577	200
1	1939	117017	201
1	1944	117225	200
1	1949	117276	201
1	1958	117992	202
1	1964	118442	203
1	1967	118539	204
1	1969	118548	203
1	1980	119327	204
1	1983	119669	205
1	1992	120243	206
1	1994	120255	205
1	1999	120376	206
1	2008	121007	207
1	2014	121417	208
1	2020	121932	209
1	2022	121979	208
1	2027	122019	209
1	2033	122457	210
1	2039	122975	211
1	2045	123275	212
1	2047	123400	211
1	2058	124039	212
1	2061	124142	213
1	2069	124847	212
1	2074	124870	213
1	2077	125025	214
1	2083	125390	215
1	2089	125916	216
1	2097	126531	215
1	2102	126637	216
1	2108	127022	217
1	2111	127170	218
1	2120	127768	219
1	2122	127847	218
1	2127	128086	219
1	2133	128497	220
1	2142	129019	221
1	2145	129158	222
1	2150	129743	221
1	2158	129816	222
1	2161	130127	223
1	2167	130604	224
1	2176	131098	225
1	2179	131226	226
1	2181	131481	225
1	2189	131751	226
1	2195	132188	227
1	2201	132555	228
1	2207	132909	229
1	2209	132949	228
1	2217	133445	229
1	2226	134074	230
1	2228	134301	229
1	2233	134308	230
1	2242	134902	231
1	2245	135144	232
1	2253	135680	231
1	2258	135848	232
1	2264	136095	233
1	2267	136313	234
1	2276	137031	235
1	2278	137213	234
1	2283	137307	235
1	2289	137726	236
1	2298	138341	237
1	2301	138475	238
1	2307	138793	239
1	2309	139008	238
1	2317	139403	239
1	2326	139948	240
1	2332	140461	241
1	2338	140699	242
1	2340	140883	241
1	2345	140970	242
1	2354	141553	243
1	2357	141877	244
1	2363	141977	245
1	2368	142361	244
1	2373	142489	245
1	2382	143218	246
1	2388	143693	247
1	2393	143962	246
1	2398	144090	247
1	2401	144156	248
1	2407	144612	249
1	2413	145064	250
1	2418	145231	249
1	2423	145465	250
1	2432	145981	251
1	2435	146316	252
1	2441	146573	253
1	2446	146822	252
1	2454	147316	253
1	2457	147541	254
1	2463	147911	255
1	2465	148192	254
1	2476	148675	255
1	2482	149107	256
1	2485	149338	257
1	2487	149416	256
1	2498	149942	257
1	2501	150002	258
1	2507	150528	259
1	2516	151144	260
1	2518	151249	259
1	2526	151526	260
1	2529	151931	261
1	2535	152320	262
1	2540	152470	261
1	2545	152508	262
1	2551	153067	263
1	2557	153472	264
1	2565	154220	263
1	2570	154245	264
1	2573	154314	265
1	2579	154693	266
1	2585	155198	267
1	2590	155636	266
1	2595	155925	267
1	2601	156371	268
1	2610	156885	269
1	2612	157043	268
1	2620	157368	269
1	2623	157628	270
1	2629	157873	271
1	2635	158403	272
1	2641	158693	273
1	2643	158790	272
1	2651	159208	273
1	2657	159623	274
1	2662	160131	273
1	2670	160332	274
1	2673	160468	275
1	2679	160843	276
1	2685	161406	277
1	2687	161516	276
1	2695	161812	277
1	2704	162568	278
1	2710	162968	279
1	2713	163009	280
1	2718	163426	279
1	2723	163496	280
1	2729	163911	281
1	2735	164458	282
1	2741	164977	283
1	2747	165223	284
1	2749	165302	283
1	2760	165906	284
1	2766	166492	285
1	2771	166803	284
1	2776	166836	285
1	2779	166875	286
1	2785	167268	287
1	2794	168031	288
1	2797	168044	289
1	2802	168391	288
1	2807	168514	289
1	2816	169214	290
1	2819	169254	291
1	2825	169684	292
1	2831	170074	293
1	2833	170210	292
1	2844	170756	293
1	2847	170841	294
1	2853	171410	295
1	2859	171856	296
1	2864	172056	295
1	2869	172217	296
1	2878	172944	297
1	2884	173405	298
1	2890	173750	299
1	2892	173757	298
1	2897	174120	299
1	2903	174325	300
1	2909	174927	301
1	2914	175258	300
1	2922	175452	301
1	2928	175945	302
1	2931	176214	303
1	2937	176579	304
1	2942	177038	303
1	2947	177082	304
1	2953	177602	305
1	2959	177755	306
1	2964	178595	305
1	2972	178688	306
1	2978	179118	307
1	2984	179600	308
1	2987	179873	309
1	2993	180216	310
1	2998	180322	309
1	3003	180577	310
1	3012	181115	311
1	3015	181392	312
1	3021	181651	313
1	3023	181672	312
1	3031	182322	313
1	3037	182568	314
1	3046	183326	315
1	3048	183510	314
1	3056	183747	315
1	3062	184178	316
1	3065	184190	317
1	3074	184951	318
1	3076	184998	317
1	3084	185498	318
1	3090	185719	319
1	3093	185989	320
1	3098	186203	319
1	3103	186331	320
1	3109	186655	321
1	3118	187416	322
1	3120	187766	321
1	3128	187839	322
1	3131	188040	323
1	3137	188519	324
1	3143	189050	325
1	3148	189398	324
1	3153	189421	325
1	3162	190042	326
1	3165	190260	327
1	3171	190560	328
1	3176	191014	327
1	3184	191248	328
1	3187	191484	329
1	3196	192171	330
1	3202	192618	331
1	3204	192621	330
1	3212	193013	331
1	3218	193453	332
1	3221	193747	333
1	3230	194242	334
1	3232	194498	333
1	3237	194613	334
1	3243	194778	335
1	3249	195446	336
1	3254	195752	335
1	3262	196013	336
1	3265	196163	337
1	3274	196877	338
1	3279	197153	337
1	3284	197294	338
1	3287	197295	339
1	3293	197887	340
1	3302	198435	341
1	3305	198687	342
1	3310	199065	341
1	3318	199223	342
1	3324	199587	343
1	3327	199802	344
1	3333	200114	345
1	3339	200657	346
1	3341	200683	345
1	3352	201198	346
1	3355	201512	347
1	3364	202035	348
1	3367	202127	349
1	3369	202280	348
1	3377	202655	349
1	3386	203252	350
1	3389	203366	351
1	3395	204129	352
1	3400	204192	351
1	3405	204383	352
1	3414	205097	353
1	3417	205189	354
1	3423	205616	355
1	3428	206027	354
1	3433	206150	355
1	3439	206421	356
1	3445	206929	357
1	3451	207315	358
1	3453	207431	357
1	3461	207682	358
1	3470	208403	359
1	3473	208494	360
1	3481	209330	359
1	3486	209335	360
1	3492	209597	361
1	3495	209801	362
1	3504	210608	363
1	3507	210818	364
1	3512	211077	363
1	3520	211364	364
1	3523	211430	365
1	3529	211929	366
1	3535	212504	367
1	3540	212798	366
1	3545	212916	367
1	3551	213509	368
1	3557	213635	369
1	3563	214370	370
1	3568	214478	369
1	3573	214867	370
1	3579	215000	371
1	3585	215405	372
1	3590	215965	371
1	3598	216139	372
1	3601	216400	373
1	3610	216995	374
1	3612	217255	373
1	3620	217439	374
1	3623	217603	375
1	3629	217988	376
1	3634	218614	375
1	3642	218780	376
1	3645	218869	377
1	3654	219676	378
1	3659	220050	377
1	3664	220100	378
1	3667	220211	379
1	3676	220720	380
1	3679	221075	381
1	3684	221261	380
1	3692	221519	381
1	3695	221731	382
1	3704	222394	383
1	3710	222795	384
1	3716	223102	385
1	3718	223126	384
1	3726	223518	385
1	3729	223749	386
1	3735	224023	387
1	3741	224666	388
1	3746	225034	387
1	3751	225078	388
1	3760	225732	389
1	3766	225943	390
1	3769	226304	391
1	3775	226468	392
1	3780	226842	391
1	3785	227037	392
1	3791	227372	393
1	3797	227781	394
1	3803	228163	395
1	3805	228337	394
1	3813	228774	395
1	3819	229197	396
1	3824	229620	395
1	3832	229737	396
1	3835	229909	397
1	3841	230278	398
1	3847	230791	399
1	3852	231370	398
1	3857	231422	399
1	3866	231914	400
1	3872	232314	401
1	3874	232584	400
1	3879	232589	401
1	3885	232920	402
1	3894	233595	403
1	3897	233821	404
1	3905	234447	403
1	3910	234529	404
1	3913	234641	405
1	3919	235075	406
1	3928	235806	407
1	3930	235899	406
1	3935	236023	407
1	3941	236480	408
1	3947	236769	409
1	3952	237357	408
1	3960	237528	409
1	3963	237745	410
1	3969	238040	411
1	3978	238839	412
1	3980	239107	411
1	3988	239198	412
1	3991	239488	413
1	4000	240065	414
1	4006	240471	415
1	4008	240531	414
1	4013	240564	415
1	4022	241337	416
1	4025	241422	417
1	4030	241864	416
1	4035	241954	417
1	4044	242450	418
1	4047	242526	419
1	4056	243296	420
1	4061	243776	419
1	4066	243844	420
1	4069	243978	421
1	4078	244557	422
1	4084	244985	423
1	4086	245042	422
1	4091	245068	423
1	4097	245520	424
1	4103	245857	425
1	4109	246267	426
1	4111	246502	425
1	4119	246689	426
1	4125	247294	427
1	4131	247721	428
1	4137	247976	429
1	4142	248335	428
1	4147	248429	429
1	4156	248995	430
1	4159	249261	431
1	4164	249641	430
1	4172	249836	431
1	4178	250241	432
1	4181	250351	433
1	4190	250965	434
1	4193	251141	435
1	4195	251158	434
1	4203	251589	435
1	4212	252387	436
1	4215	252670	437
1	4220	252895	436
1	4225	253161	437
1	4231	253519	438
1	4237	253787	439
1	4246	254454	440
1	4248	254487	439
1	4253	254585	440
1	4259	255073	441
1	4267	255733	440
1	4272	255735	441
1	4275	255838	442
1	4281	256383	443
1	4287	256887	444
1	4293	257270	445
1	4298	257327	444
1	4303	257667	445
1	4309	257892	446
1	4315	258283	447
1	4320	258644	446
1	4325	258969	447
1	4334	259508	448
1	4340	259949	449
1	4342	260250	448
1	4350	260295	449
1	4356	260724	450
1	4359	260788	451
1	4365	261346	452
1	4374	261926	453
1	4376	262087	452
1	4384	262225	453
1	4387	262471	454
1	4396	263083	455
1	4399	263248	456
1	4401	263342	455
1	4409	263768	456
1	4415	264046	457
1	4424	264651	458
1	4427	265087	459
1	4432	265180	458
1	4437	265270	459
1	4446	265949	460
1	4452	266521	461
1	4455	266543	462
1	4457	266605	461
1	4468	267296	462
1	4471	267452	463
1	4480	268070	464
1	4482	268249	463
1	4490	268514	464
1	4496	268873	465
1	4502	269293	466
1	4504	269469	465
1	4509	269596	466
1	4515	270011	467
1	4524	270673	468
1	4527	270741	469
1	4529	270808	468
1	4540	271459	469
1	4543	271612	470
1	4548	272196	469
1	4556	272337	470
1	4559	272470	471
1	4568	273227	472
1	4571	273243	473
1	4576	273807	472
1	4581	273857	473
1	4587	274162	474
1	4593	274615	475
1	4602	275225	476
1	4604	275342	475
1	4609	275401	476
1	4615	275802	477
1	4621	276187	478
1	4626	276933	477
1	4634	277050	478
2	38	3317	2930
2	72	5115	4284
2	100	6892	5640
2	128	8717	7038
2	153	10042	7983
2	181	11921	9409
2	212	13776	10808
2	240	15245	11888
2	268	16912	13093
2	296	18713	14496
2	324	20356	15757
2	349	21846	16807
2	374	23371	17959
2	402	25136	19248
2	427	26636	20373
2	452	28303	21647
2	480	30019	22948
2	505	31532	24031
2	527	32747	24859
2	552	34350	26052
2	586	36221	27465
2	614	37889	28666
2	645	39694	30025
2	664	40976	30835
2	692	42819	32270
2	717	44239	33307
2	742	45508	34159
2	770	47044	35324
2	795	48332	36170
2	820	49944	37338
2	848	51499	38427
2	870	52995	39542
2	901	54888	40961
2	929	56552	42211
2	954	57910	43187
2	982	59703	44524
2	1004	60976	45420
2	1032	62602	46657
2	1057	64246	47857
2	1085	65753	48990
2	1116	67603	50399
2	1135	68854	51217
2	1160	70335	52229
2	1182	71632	53145
2	1210	73502	54553
2	1241	75132	55822
2	1269	76796	57061
2	1300	78628	58512
2	1325	80263	59697
2	1353	81773	60804
2	1381	83467	62063
2	1409	85115	63231
2	1437	86784	64435
2	1459	88074	65255
2	1487	89812	66541
2	1512	91211	67539
2	1540	92904	68776
2	1568	94547	69985
2	1599	96404	71389
2	1618	97690	72209
2	1640	99088	73155
2	1671	100637	74291
2	1693	102176	75413
2	1724	104066	76908
2	1758	105971	78431
2	1786	107706	79702
2	1811	109193	80782
2	1830	110509	81621
2	1858	111844	82512
2	1880	113158	83375
2	1905	114688	84492
2	1924	115958	85339
2	1946	117225	86161
2	1971	118548	87012
2	1996	120255	88280
2	2024	121979	89583
2	2049	123400	90641
2	2071	124847	91646
2	2099	126531	92912
2	2124	127847	93817
2	2152	129743	95335
2	2183	131481	96649
2	2211	132949	97731
2	2230	134301	98689
2	2255	135680	99658
2	2280	137213	100715
2	2311	139008	102098
2	2342	140883	103529
2	2370	142361	104588
2	2395	143962	105790
2	2420	145231	106585
2	2448	146822	107737
2	2467	148192	108640
2	2489	149416	109405
2	2520	151249	110802
2	2542	152470	111569
2	2567	154220	112929
2	2592	155636	113894
2	2614	157043	114909
2	2645	158790	116291
2	2664	160131	117250
2	2689	161516	118180
2	2720	163426	119672
2	2751	165302	121182
2	2773	166803	122287
2	2804	168391	123506
2	2835	170210	124956
2	2866	172056	126390
2	2894	173757	127728
2	2916	175258	128818
2	2944	177038	130213
2	2966	178595	131357
2	3000	180322	132674
2	3025	181672	133629
2	3050	183510	135005
2	3078	184998	136096
2	3100	186203	136834
2	3122	187766	137970
2	3150	189398	139142
2	3178	191014	140376
2	3206	192621	141514
2	3234	194498	143007
2	3256	195752	143849
2	3281	197153	144794
2	3312	199065	146278
2	3343	200683	147452
2	3371	202280	148636
2	3402	204192	150149
2	3430	206027	151513
2	3455	207431	152467
2	3483	209330	153987
2	3514	211077	155326
2	3542	212798	156661
2	3570	214478	157963
2	3592	215965	159042
2	3614	217255	159926
2	3636	218614	160808
2	3661	220050	161854
2	3686	221261	162604
2	3720	223126	163991
2	3748	225034	165421
2	3782	226842	166387
2	3807	228337	168268
2	3826	229620	168767
2	3854	231370	170076
2	3876	232584	170879
2	3907	234447	172262
2	3932	235899	173324
2	3954	237357	174392
2	3982	239107	175748
2	4010	240531	176701
2	4032	241864	177579
2	4063	243776	179101
2	4088	245042	179959
2	4113	246502	181050
2	4144	248335	182453
2	4166	249641	183387
2	4197	251158	184509
2	4222	252895	185817
2	4250	254487	186964
2	4269	255733	187751
2	4300	257327	188898
2	4322	258644	189789
2	4344	260250	190941
2	4378	262087	192405
2	4403	263342	193296
2	4434	265180	194692
2	4459	266605	195640
2	4484	268249	196810
2	4506	269469	197572
2	4531	270808	198541
2	4550	272196	199504
2	4578	273807	200651
2	4606	275342	201803
2	4628	276933	202917

