version 2
run Iteration-8-20220517-20:06:28-13808
attr configname Iteration
attr datetime 20220517-20:06:28
attr experiment Iteration
attr inifile omnetpp.ini
attr iterationvars "$i=9, $0=12-9"
attr iterationvarsf i=9,12-9-
attr measurement "$i=9, $0=12-9"
attr network Network
attr processid 13808
attr repetition 0
attr replication #0
attr resultdir results
attr runnumber 8
attr seedset 8
itervar i 9
param **.resource_ordering.amount 9
param **.resource_delivery.amount 12-9
param **.source.interArrivalTime uniform(8min,6min)
param **.allocate_ordering.resourceModuleName "\"resource_ordering\""
param **.delay_ordering.delay uniform(24min,16min)
param **.deallocate_ordering.resourceModuleName "\"resource_ordering\""
param **.allocate_delivery.resourceModuleName "\"resource_delivery\""
param **.delay_delivery.delay uniform(32min,20min)
param **.deallocate_delivery.resourceModuleName "\"resource_delivery\""

vector 0 Network.allocate_ordering queueLength:vector ETV
attr interpolationmode sample-hold
attr title "queue length, vector"
vector 1 Network.allocate_delivery queueLength:vector ETV
attr interpolationmode sample-hold
attr title "queue length, vector"
vector 2 Network.sinkStat lifeTime:vector ETV
attr interpolationmode none
attr title "lifetime of arrived jobs, vector"
attr unit s
0	0	0	0
1	0	0	0
1	46	3425	1
1	48	3789	0
1	53	3846	1
1	55	3858	0
1	63	4204	1
1	68	4553	0
1	73	4579	1
1	79	5005	2
1	84	5204	1
1	89	5479	2
1	91	5488	1
1	99	5694	2
1	104	6219	1
1	112	6423	2
1	118	6818	3
1	120	7085	2
1	125	7105	3
1	127	7250	2
1	138	7704	3
1	141	8022	4
1	143	8047	3
1	151	8457	4
1	157	8753	5
1	159	8843	4
1	163	8887	3
1	170	9258	2
1	175	9383	3
1	181	9679	4
1	186	10213	3
1	191	10257	4
1	196	10604	3
1	201	10623	4
1	206	10699	3
1	211	10945	4
1	219	11698	3
1	224	11713	4
1	227	11747	5
1	233	12217	6
1	238	12456	5
1	242	12500	4
1	250	12890	5
1	256	13268	6
1	258	13488	5
1	263	13492	6
1	268	13813	5
1	276	13959	6
1	278	14196	5
1	286	14535	6
1	289	14547	7
1	295	15075	8
1	297	15090	7
1	304	15373	6
1	309	15592	7
1	314	15672	6
1	322	16192	7
1	325	16214	8
1	331	16745	9
1	333	16912	8
1	340	17000	7
1	344	17073	6
1	349	17153	7
1	355	17716	8
1	361	18009	9
1	366	18240	8
1	371	18349	9
1	373	18411	8
1	377	18625	7
1	385	18945	8
1	394	19402	9
1	396	19817	8
1	404	19944	9
1	406	19955	8
1	410	20157	7
1	415	20230	8
1	421	20588	9
1	430	21152	10
1	433	21259	11
1	435	21291	10
1	439	21325	9
1	446	21862	8
1	451	21966	9
1	460	22503	10
1	462	22643	9
1	470	22906	10
1	472	23073	9
1	479	23173	8
1	484	23247	9
1	490	23677	10
1	492	23978	9
1	500	24127	10
1	503	24142	11
1	508	24505	10
1	512	24592	9
1	517	24813	10
1	523	25343	11
1	528	25538	10
1	532	25713	9
1	540	25820	10
1	542	25880	9
1	547	26160	10
1	553	26438	11
1	559	26833	12
1	564	27118	11
1	568	27252	10
1	573	27398	11
1	578	27710	10
1	583	27842	11
1	589	28294	12
1	598	28852	13
1	600	28933	12
1	604	28998	11
1	608	29030	10
1	613	29177	11
1	619	29647	12
1	628	30168	13
1	631	30250	14
1	633	30458	13
1	640	30501	12
1	645	30681	13
1	650	30912	12
1	655	31317	13
1	661	31719	14
1	667	32064	15
1	669	32156	14
1	676	32279	13
1	684	32605	14
1	686	32650	13
1	691	32777	14
1	700	33519	15
1	702	33689	14
1	710	33822	15
1	713	34045	16
1	715	34071	15
1	722	34175	14
1	727	34316	15
1	733	34806	16
1	738	35207	15
1	743	35298	16
1	748	35599	15
1	752	35796	14
1	757	35845	15
1	763	36102	16
1	769	36643	17
1	774	36951	16
1	778	37017	15
1	786	37175	16
1	788	37225	15
1	796	37622	16
1	799	37815	17
1	804	38155	16
1	809	38193	17
1	811	38472	16
1	818	38648	15
1	823	38739	16
1	829	39176	17
1	834	39763	16
1	842	39920	17
1	844	39925	16
1	849	39965	17
1	851	40039	16
1	862	40761	17
1	868	41109	18
1	870	41159	17
1	875	41229	18
1	877	41320	17
1	884	41750	16
1	892	41917	17
1	898	42409	18
1	904	42844	19
1	906	42888	18
1	910	42948	17
1	918	43069	18
1	920	43146	17
1	925	43427	18
1	931	43887	19
1	936	44237	18
1	941	44267	19
1	947	44679	20
1	949	44757	19
1	956	44908	18
1	964	45224	19
1	967	45594	20
1	973	45900	21
1	975	45959	20
1	982	46102	19
1	986	46226	18
1	994	46541	19
1	1000	46983	20
1	1003	46987	21
1	1008	47291	20
1	1013	47537	21
1	1015	47594	20
1	1022	47821	19
1	1027	47845	20
1	1036	48590	21
1	1038	48748	20
1	1043	48754	21
1	1049	49141	22
1	1051	49211	21
1	1058	49495	20
1	1063	49618	21
1	1069	49888	22
1	1078	50540	23
1	1080	50665	22
1	1085	50785	23
1	1087	50842	22
1	1095	51114	23
1	1097	51210	22
1	1105	51700	23
1	1110	51921	22
1	1118	52179	23
1	1120	52237	22
1	1124	52432	21
1	1132	52631	22
1	1135	52826	23
1	1140	53200	22
1	1148	53460	23
1	1151	53804	24
1	1153	53849	23
1	1160	53913	22
1	1168	54283	23
1	1171	54707	24
1	1173	54716	23
1	1181	54852	24
1	1187	55448	25
1	1192	55647	24
1	1197	55727	25
1	1199	55777	24
1	1206	56143	23
1	1214	56464	24
1	1217	56771	25
1	1222	57147	24
1	1229	57355	23
1	1234	57388	24
1	1237	57448	25
1	1239	57455	24
1	1250	58122	25
1	1256	58518	26
1	1258	58606	25
1	1263	58732	26
1	1265	58842	25
1	1273	59081	26
1	1275	59198	25
1	1286	59840	26
1	1288	60054	25
1	1295	60274	24
1	1300	60298	25
1	1303	60557	26
1	1308	60665	25
1	1313	60852	26
1	1319	61338	27
1	1325	61689	28
1	1327	61723	27
1	1331	61858	26
1	1338	62131	25
1	1343	62337	26
1	1349	62451	27
1	1354	63062	26
1	1359	63107	27
1	1361	63136	26
1	1369	63328	27
1	1371	63444	26
1	1379	64144	27
1	1385	64289	28
1	1387	64351	27
1	1395	64740	28
1	1397	64886	27
1	1404	65164	26
1	1409	65253	27
1	1414	65576	26
1	1419	65759	27
1	1428	66442	28
1	1430	66494	27
1	1434	66605	26
1	1439	66708	27
1	1445	66834	28
1	1447	67117	27
1	1455	67334	28
1	1460	67778	27
1	1468	68111	28
1	1471	68171	29
1	1476	68444	28
1	1481	68688	29
1	1486	68815	28
1	1491	69139	29
1	1496	69463	28
1	1504	69637	29
1	1510	70081	30
1	1512	70258	29
1	1520	70454	30
1	1522	70618	29
1	1526	70683	28
1	1534	70921	29
1	1540	71228	30
1	1542	71531	29
1	1550	71857	30
1	1555	71981	29
1	1560	72089	30
1	1562	72104	29
1	1570	72462	30
1	1573	72664	31
1	1581	73132	30
1	1586	73176	31
1	1589	73442	32
1	1594	73727	31
1	1598	73823	30
1	1606	73932	31
1	1609	74133	32
1	1614	74415	31
1	1619	74531	32
1	1625	74927	33
1	1633	75509	34
1	1636	75543	33
1	1640	75593	32
1	1644	75763	31
1	1649	75912	32
1	1655	76101	33
1	1661	76474	34
1	1666	76877	33
1	1671	76987	34
1	1676	77310	33
1	1681	77467	34
1	1683	77602	33
1	1691	77975	34
1	1697	78374	35
1	1702	78792	34
1	1709	78948	33
1	1714	79016	34
1	1716	79289	33
1	1724	79468	34
1	1727	79500	35
1	1732	80087	34
1	1740	80235	35
1	1742	80526	34
1	1750	80720	35
1	1752	80967	34
1	1760	81012	35
1	1763	81269	36
1	1768	81518	35
1	1772	81763	34
1	1777	81767	35
1	1783	82180	36
1	1792	82676	37
1	1794	82876	36
1	1799	82905	37
1	1804	83425	36
1	1808	83435	35
1	1816	83547	36
1	1822	83911	37
1	1827	84252	36
1	1832	84373	37
1	1834	84648	36
1	1842	84697	37
1	1844	84734	36
1	1852	85114	37
1	1858	85492	38
1	1861	85831	39
1	1863	85872	38
1	1870	86198	37
1	1874	86338	36
1	1879	86341	37
1	1885	86524	38
1	1891	86946	39
1	1897	87492	40
1	1902	87634	39
1	1906	87647	38
1	1911	87842	39
1	1916	88116	38
1	1921	88390	39
1	1930	88984	40
1	1933	89034	41
1	1938	89399	40
1	1942	89553	39
1	1946	89598	38
1	1954	89907	39
1	1957	89972	40
1	1963	90225	41
1	1972	90865	42
1	1974	90907	41
1	1978	90966	40
1	1983	91087	41
1	1988	91388	40
1	1996	91784	41
1	1999	91971	42
1	2004	92241	41
1	2012	92592	42
1	2014	92774	41
1	2022	93078	42
1	2024	93182	41
1	2029	93394	42
1	2035	93569	43
1	2037	93833	42
1	2045	94171	43
1	2050	94502	42
1	2054	94737	41
1	2059	94743	42
1	2065	95091	43
1	2070	95406	42
1	2078	95654	43
1	2080	95842	42
1	2088	96081	43
1	2090	96218	42
1	2095	96362	43
1	2104	96867	44
1	2106	97091	43
1	2114	97278	44
1	2116	97319	43
1	2120	97504	42
1	2128	97789	43
1	2131	97800	44
1	2137	98339	45
1	2142	98547	44
1	2147	98878	45
1	2152	99110	44
1	2156	99113	43
1	2164	99512	44
1	2169	99860	43
1	2174	99930	44
1	2177	99972	45
1	2182	100378	44
1	2187	100434	45
1	2195	101001	44
1	2201	101186	43
1	2202	101186	44
1	2207	101313	45
1	2213	101698	46
1	2218	102134	45
1	2222	102206	44
1	2230	102417	45
1	2236	102676	46
1	2238	102822	45
1	2243	102992	46
1	2252	103599	47
1	2255	103712	48
1	2257	103746	47
1	2261	103795	46
1	2269	104183	47
1	2271	104217	46
1	2279	104584	47
1	2285	104989	48
1	2290	105421	47
1	2295	105442	48
1	2300	105583	47
1	2304	105664	46
1	2309	105736	47
1	2315	106329	48
1	2321	106735	49
1	2326	107083	48
1	2330	107118	47
1	2338	107280	48
1	2340	107351	47
1	2348	107627	48
1	2354	108204	49
1	2357	108252	50
1	2359	108374	49
1	2367	108664	50
1	2369	108779	49
1	2376	108920	48
1	2384	109331	49
1	2387	109515	50
1	2392	109720	49
1	2400	110092	50
1	2402	110362	49
1	2409	110533	48
1	2414	110592	49
1	2420	110980	50
1	2423	111065	51
1	2428	111387	50
1	2436	111650	51
1	2439	111903	52
1	2441	111924	51
1	2445	111995	50
1	2453	112228	51
1	2459	112746	52
1	2464	113142	51
1	2469	113149	52
1	2471	113314	51
1	2478	113593	50
1	2486	113914	51
1	2492	114251	52
1	2498	114635	53
1	2500	114714	52
1	2504	114875	51
1	2512	115190	52
1	2514	115231	51
1	2519	115235	52
1	2528	115937	53
1	2533	116311	52
1	2538	116400	53
1	2540	116532	52
1	2545	116541	53
1	2547	116602	52
1	2555	117069	53
1	2561	117311	54
1	2566	117718	53
1	2573	117976	52
1	2578	118026	53
1	2580	118149	52
1	2588	118566	53
1	2591	118673	54
1	2597	118970	55
1	2599	118992	54
1	2609	119543	53
1	2614	119605	54
1	2617	119899	55
1	2622	120004	54
1	2626	120234	53
1	2634	120547	54
1	2637	120833	55
1	2643	121082	56
1	2645	121173	55
1	2653	121454	56
1	2655	121577	55
1	2663	121890	56
1	2665	121952	55
1	2672	122477	54
1	2677	122491	55
1	2683	122630	56
1	2685	122953	55
1	2696	123554	56
1	2698	123645	55
1	2703	123685	56
1	2709	124006	57
1	2714	124380	56
1	2719	124417	57
1	2721	124583	56
1	2731	125225	55
1	2736	125333	56
1	2742	125555	57
1	2745	125765	58
1	2750	126044	57
1	2758	126441	58
1	2760	126465	57
1	2764	126698	56
1	2769	126767	57
1	2778	127170	58
1	2783	127670	57
1	2788	127768	58
1	2790	127823	57
1	2797	128156	56
1	2802	128203	57
1	2805	128385	58
1	2811	128620	59
1	2817	129116	60
1	2822	129501	59
1	2826	129580	58
1	2830	129623	57
1	2838	129743	58
1	2841	130029	59
1	2850	130533	60
1	2852	130848	59
1	2860	130917	60
1	2862	130919	59
1	2867	131163	60
1	2872	131374	59
1	2877	131715	60
1	2886	132132	61
1	2889	132229	62
1	2894	132564	61
1	2898	132620	60
1	2902	132782	59
1	2910	132974	60
1	2916	133381	61
1	2919	133738	62
1	2924	133982	61
1	2928	134125	60
1	2933	134181	61
1	2938	134439	60
1	2943	134456	61
1	2949	134962	62
1	2954	135208	61
1	2958	135426	60
1	2963	135546	61
1	2969	135767	62
1	2974	136307	61
1	2982	136585	62
1	2984	136673	61
1	2991	136804	60
1	2996	136978	61
1	2999	137198	62
1	3007	137828	61
1	3012	137866	62
1	3015	137897	63
1	3020	138267	62
1	3027	138466	61
1	3032	138475	62
1	3038	138985	63
1	3041	139300	64
1	3046	139344	63
1	3051	139543	64
1	3053	139698	63
1	3057	139739	62
1	3065	140023	63
1	3071	140366	64
1	3076	140897	63
1	3081	141013	64
1	3086	141531	63
1	3094	141572	64
1	3096	141580	63
1	3101	141871	64
1	3107	142222	65
1	3113	142607	66
1	3115	142641	65
1	3122	142953	64
1	3126	143007	63
1	3134	143441	64
1	3137	143725	65
1	3145	144122	64
1	3150	144293	65
1	3153	144509	66
1	3155	144554	65
1	3162	144596	64
1	3167	144913	65
1	3176	145426	66
1	3178	145761	65
1	3185	145789	64
1	3190	145953	65
1	3193	145977	66
1	3195	146112	65
1	3206	146529	66
1	3212	147024	67
1	3217	147352	66
1	3222	147382	67
1	3224	147420	66
1	3228	147682	65
1	3236	147961	66
1	3239	148090	67
1	3245	148528	68
1	3250	148657	67
1	3255	148754	68
1	3257	148967	67
1	3264	149044	66
1	3272	149423	67
1	3278	149999	68
1	3281	150008	69
1	3283	150102	68
1	3291	150471	69
1	3293	150602	68
1	3297	150648	67
1	3305	150885	68
1	3314	151644	69
1	3316	151841	68
1	3323	151985	67
1	3327	151990	66
1	3332	152067	67
1	3335	152132	68
1	3344	152779	69
1	3347	152850	70
1	3352	153190	69
1	3356	153381	68
1	3360	153542	67
1	3368	153693	68
1	3371	153940	69
1	3377	154095	70
1	3382	154588	69
1	3386	154728	68
1	3391	154825	69
1	3393	154987	68
1	3401	155199	69
1	3410	155872	70
1	3412	155889	69
1	3420	156306	70
1	3422	156346	69
1	3427	156406	70
1	3432	156730	69
1	3440	157104	70
1	3442	157222	69
1	3450	157385	70
1	3453	157529	71
1	3459	158171	72
1	3461	158173	71
1	3465	158225	70
1	3472	158579	69
1	3480	158737	70
1	3483	159031	71
1	3492	159547	72
1	3494	159804	71
1	3499	159859	72
1	3501	159894	71
1	3509	160041	72
1	3511	160181	71
1	3519	160632	72
1	3525	160996	73
1	3530	161586	72
1	3535	161618	73
1	3537	161645	72
1	3544	161715	71
1	3549	161826	72
1	3558	162709	73
1	3560	162896	72
1	3568	163115	73
1	3570	163165	72
1	3575	163336	73
1	3580	163540	72
1	3588	163916	73
1	3590	164125	72
1	3595	164174	73
1	3600	164393	72
1	3605	164613	73
1	3611	164822	74
1	3616	165387	73
1	3621	165445	74
1	3623	165575	73
1	3630	165750	72
1	3635	165835	73
1	3641	166163	74
1	3647	166702	75
1	3649	166752	74
1	3656	166987	73
1	3664	167425	74
1	3667	167560	75
1	3669	167653	74
1	3680	168172	75
1	3682	168489	74
1	3686	168577	73
1	3694	168730	74
1	3697	168943	75
1	3699	168948	74
1	3710	169550	75
1	3713	169587	76
1	3718	169970	75
1	3722	169991	74
1	3730	170395	75
1	3732	170576	74
1	3740	170830	75
1	3743	171107	76
1	3748	171188	75
1	3752	171341	74
1	3760	171634	75
1	3763	171731	76
1	3765	171991	75
1	3775	172404	76
1	3781	172857	75
1	3785	172918	74
1	3790	172999	75
1	3793	173123	76
1	3798	173413	75
1	3806	173825	76
1	3812	174022	77
1	3815	174301	78
1	3817	174321	77
1	3824	174718	76
1	3829	174735	77
1	3834	175174	76
1	3842	175299	77
1	3845	175444	78
1	3850	175785	77
1	3858	176210	78
1	3860	176267	77
1	3865	176381	78
1	3867	176557	77
1	3875	176952	78
1	3881	177222	79
1	3883	177362	78
1	3891	177594	79
1	3893	177617	78
1	3897	177842	77
1	3908	178429	78
1	3911	178543	79
1	3916	178864	78
1	3921	179048	79
1	3923	179065	78
1	3933	179509	77
1	3938	179564	78
1	3941	179631	79
1	3947	180065	80
1	3952	180359	79
1	3956	180553	78
1	3964	180883	79
1	3967	180978	80
1	3972	181339	79
1	3980	181653	80
1	3983	181782	81
1	3988	182110	80
1	3992	182235	79
1	3997	182441	80
1	4002	182727	79
1	4010	182956	80
1	4013	183171	81
1	4015	183345	80
1	4023	183589	81
1	4029	183865	82
1	4031	183893	81
1	4035	184043	80
1	4046	184736	81
1	4048	184893	80
1	4053	184992	81
1	4059	185322	82
1	4064	185495	81
1	4069	185764	82
1	4074	185863	81
1	4079	186255	82
1	4085	186541	83
1	4090	186777	82
1	4094	186806	81
1	4099	187063	82
1	4104	187257	81
1	4109	187423	82
1	4115	187779	83
1	4121	188135	84
1	4123	188360	83
1	4130	188666	82
1	4134	188745	81
1	4142	188955	82
1	4145	189271	83
1	4154	189758	84
1	4157	189799	85
1	4159	190129	84
1	4166	190244	83
1	4171	190338	84
1	4173	190358	83
1	4183	190948	84
1	4190	191556	85
1	4192	191577	84
1	4196	191640	83
1	4200	191691	82
1	4208	191844	83
1	4211	192066	84
1	4220	192681	85
1	4223	192852	86
1	4229	193170	85
1	4230	193170	84
1	4240	193363	85
1	4242	193390	84
1	4247	193589	85
1	4256	194237	86
1	4258	194574	85
1	4266	194671	86
1	4269	194707	87
1	4271	194979	86
1	4278	195078	85
1	4283	195409	86
1	4288	195804	85
1	4296	195973	86
1	4299	196184	87
1	4304	196450	86
1	4309	196505	87
1	4315	196867	88
1	4317	196895	87
1	4325	197289	88
1	4327	197416	87
1	4334	197961	86
1	4342	198156	87
1	4345	198157	88
1	4347	198383	87
1	4355	198598	88
1	4357	198811	87
1	4365	199277	88
1	4374	199802	89
1	4376	199838	88
1	4381	199873	89
1	4383	200049	88
1	4391	200337	89
1	4396	200619	88
1	4401	200827	89
1	4406	201270	88
1	4414	201441	89
1	4417	201520	90
1	4419	201659	89
1	4427	201991	90
1	4429	202087	89
1	4440	202710	90
1	4443	202783	91
1	4445	202951	90
1	4453	203183	91
1	4455	203280	90
1	4459	203300	89
1	4467	203643	90
1	4475	204337	89
1	4480	204348	90
1	4482	204770	89
1	4490	204900	90
1	4493	204952	91
1	4495	205037	90
1	4503	205390	91
1	4511	206008	90
1	4516	206104	91
1	4519	206151	92
1	4524	206361	91
1	4529	206628	92
1	4531	206637	91
1	4539	206943	92
1	4545	207464	93
1	4550	207825	92
1	4555	207829	93
1	4560	208068	92
1	4564	208149	91
1	4572	208456	92
1	4575	208825	93
1	4581	208911	94
1	4586	209537	93
1	4590	209658	92
1	4598	209712	93
1	4600	209803	92
1	4608	210254	93
1	4611	210280	94
1	4616	210912	93
1	4624	211020	94
1	4626	211110	93
1	4630	211247	92
1	4638	211499	93
1	4641	211595	94
1	4647	212063	95
1	4652	212402	94
1	4656	212493	93
1	4661	212665	94
1	4666	212721	93
1	4671	213039	94
1	4677	213522	95
1	4682	213807	94
1	4690	214067	95
1	4692	214098	94
1	4696	214169	93
1	4701	214220	94
1	4710	214917	95
1	4713	214991	96
1	4715	215101	95
1	4722	215477	94
1	4729	215635	93
1	4734	215715	94
1	4737	216014	95
1	4746	216527	96
1	4748	216690	95
1	4756	217038	96
1	4758	217077	95
1	4763	217267	96
1	4768	217429	95
1	4776	217771	96
1	4779	217857	97
1	4784	218360	96
1	4789	218412	97
1	4794	218572	96
1	4799	218841	97
1	4804	219073	96
1	4809	219293	97
1	4814	219583	96
1	4819	219720	97
1	4824	220078	96
1	4829	220198	97
1	4835	220486	98
1	4840	220893	97
1	4844	220925	96
1	4849	220963	97
1	4855	221365	98
1	4860	221770	97
1	4865	221805	98
1	4870	222282	97
1	4878	222474	98
1	4880	222525	97
1	4888	222878	98
1	4890	223060	97
1	4895	223117	98
1	4904	223723	99
1	4906	223856	98
1	4911	224007	99
1	4916	224127	98
1	4921	224191	99
1	4923	224433	98
1	4934	225068	99
1	4937	225098	100
1	4942	225628	99
1	4946	225664	98
1	4954	225851	99
1	4957	225977	100
1	4959	226078	99
1	4967	226286	100
1	4976	227115	101
1	4978	227242	100
1	4982	227380	99
1	4990	227592	100
1	4995	227876	99
1	5000	227889	100
1	5003	228025	101
1	5009	228620	102
1	5014	228794	101
1	5018	228796	100
1	5023	229082	101
1	5028	229331	100
1	5036	229681	101
1	5042	230016	102
1	5044	230310	101
1	5052	230450	102
1	5054	230678	101
1	5061	231000	100
1	5066	231029	101
1	5072	231379	102
1	5075	231636	103
1	5081	231790	104
1	5083	231883	103
1	5090	232058	102
1	5095	232234	103
1	5100	232542	102
1	5108	232950	103
1	5111	233054	104
1	5113	233318	103
1	5121	233590	104
1	5123	233607	103
1	5131	234080	104
1	5136	234233	103
1	5143	234696	102
1	5148	234753	103
1	5151	234759	104
1	5157	235337	105
1	5162	235364	104
1	5169	235879	103
1	5174	235883	104
1	5179	236238	103
1	5184	236293	104
1	5186	236569	103
1	5191	236595	104
1	5197	236870	105
1	5202	237227	104
1	5207	237301	105
1	5213	237709	106
1	5215	237754	105
1	5223	238193	106
1	5225	238230	105
1	5233	238479	106
1	5235	238490	105
1	5243	238921	106
1	5249	239541	107
1	5251	239570	106
1	5258	239820	105
1	5263	239930	106
1	5268	239978	105
1	5273	240262	106
1	5279	240770	107
1	5288	241317	108
1	5290	241350	107
1	5294	241536	106
1	5299	241565	107
1	5304	241743	106
1	5312	242207	107
1	5315	242436	108
1	5321	242703	109
1	5326	243115	108
1	5330	243147	107
1	5335	243212	108
1	5337	243448	107
1	5348	243903	108
1	5354	244417	109
1	5356	244418	108
1	5361	244473	109
1	5363	244475	108
1	5371	244796	109
1	5373	244992	108
1	5381	245489	109
1	5389	245903	108
1	5394	245971	109
1	5396	246065	108
1	5404	246302	109
1	5406	246623	108
1	5414	246884	109
1	5417	247126	110
1	5423	247338	111
1	5428	247787	110
1	5433	247885	111
1	5435	247890	110
1	5439	247892	109
1	5447	248110	110
1	5453	248565	111
1	5458	249100	110
1	5466	249182	111
1	5468	249307	110
1	5475	249646	109
1	5480	249708	110
1	5483	249935	111
1	5488	250372	110
1	5496	250441	111
1	5498	250523	110
1	5506	251009	111
1	5509	251177	112
1	5514	251353	111
1	5521	251723	110
1	5526	251727	111
1	5529	251860	112
1	5531	251928	111
1	5539	252328	112
1	5544	252778	111
1	5552	253088	112
1	5554	253145	111
1	5559	253300	112
1	5567	253793	111
1	5572	253906	112
1	5575	253999	113
1	5580	254164	112
1	5588	254580	113
1	5590	254901	112
1	5598	255109	113
1	5604	255419	114
1	5606	255481	113
1	5610	255581	112
1	5615	255609	113
1	5624	256423	114
1	5627	256676	115
1	5632	256774	114
1	5637	256856	115
1	5642	257136	114
1	5646	257228	113
1	5654	257638	114
1	5660	258142	115
1	5662	258247	114
1	5667	258314	115
1	5673	258482	116
1	5675	258500	115
1	5679	258515	114
1	5687	259117	115
1	5693	259395	116
1	5698	259756	115
1	5703	259815	116
1	5705	259877	115
1	5712	260011	114
1	5720	260494	115
1	5723	260517	116
1	5729	261001	117
1	5731	261120	116
1	5738	261380	115
1	5746	261746	116
1	5748	261838	115
1	5753	261921	116
1	5759	262389	117
1	5761	262561	116
1	5768	262651	115
1	5776	263107	116
1	5779	263127	117
1	5781	263254	116
1	5789	263553	117
1	5794	263851	116
1	5802	264372	117
1	5804	264545	116
1	5812	264747	117
1	5814	265033	116
1	5819	265070	117
1	5825	265331	118
1	5827	265419	117
1	5835	265780	118
1	5841	266067	119
1	5843	266151	118
1	5850	266785	117
1	5858	266850	118
1	5860	266893	117
1	5865	267090	118
1	5874	267703	119
1	5877	267821	120
1	5879	268009	119
1	5886	268278	118
1	5891	268279	119
1	5896	268667	118
1	5901	268794	119
1	5907	269290	120
1	5912	269588	119
1	5916	269591	118
1	5921	269722	119
1	5927	269903	120
1	5929	270157	119
1	5940	270786	120
1	5943	270942	121
1	5945	271016	120
1	5953	271316	121
1	5955	271496	120
1	5962	271756	119
1	5970	272026	120
1	5976	272476	121
1	5982	272896	122
1	5984	272918	121
1	5989	272971	122
1	5994	273345	121
1	5998	273488	120
1	6003	273524	121
1	6009	273944	122
1	6017	274547	121
1	6021	274637	120
1	6026	274672	121
1	6029	274706	122
1	6034	275044	121
1	6039	275297	122
1	6045	275637	123
1	6050	276015	122
1	6054	276166	121
1	6062	276240	122
1	6068	276668	123
1	6070	276685	122
1	6078	277025	123
2	33	2682	2307
2	50	3789	2935
2	57	3858	2553
2	70	4553	2813
2	86	5204	3012
2	93	5488	2889
2	106	6219	3188
2	122	7085	3685
2	129	7250	3388
2	145	8047	3803
2	161	8843	4122
2	165	8887	3744
2	172	9258	3740
2	188	10213	4223
2	198	10604	4252
2	208	10699	3906
2	221	11698	4434
2	240	12456	4381
2	244	12500	4864
2	260	13488	4975
2	270	13813	4400
2	280	14196	5249
2	299	15090	5274
2	306	15373	5085
2	316	15672	4986
2	335	16912	5443
2	342	17000	5943
2	346	17073	5155
2	368	18240	5887
2	375	18411	5635
2	379	18625	5077
2	398	19817	6662
2	408	19955	5577
2	412	20157	6204
2	437	21291	6086
2	441	21325	6547
2	448	21862	6199
2	464	22643	6572
2	474	23073	6128
2	481	23173	6659
2	494	23978	6623
2	510	24505	6774
2	514	24592	6405
2	530	25538	6907
2	534	25713	6715
2	544	25880	6489
2	566	27118	7268
2	570	27252	6989
2	580	27710	6984
2	602	28933	7803
2	606	28998	7029
2	610	29030	7421
2	635	30458	8036
2	642	30501	7701
2	652	30912	7741
2	671	32156	8129
2	678	32279	8721
2	688	32650	8198
2	704	33689	8303
2	717	34071	9139
2	724	34175	8382
2	740	35207	9011
2	750	35599	8576
2	754	35796	9193
2	776	36951	9467
2	780	37017	8694
2	790	37225	9312
2	806	38155	9404
2	813	38472	9247
2	820	38648	9000
2	836	39763	9279
2	846	39925	9824
2	853	40039	9169
2	872	41159	9378
2	879	41320	9991
2	886	41750	9536
2	908	42888	9928
2	912	42948	10363
2	922	43146	9823
2	938	44237	10086
2	951	44757	11047
2	958	44908	10335
2	977	45959	10909
2	984	46102	10596
2	988	46226	10329
2	1010	47291	11028
2	1017	47594	10902
2	1024	47821	10696
2	1040	48748	11146
2	1053	49211	11137
2	1060	49495	10987
2	1082	50665	11783
2	1089	50842	11501
2	1099	51210	11434
2	1112	51921	11760
2	1122	52237	11710
2	1126	52432	11447
2	1142	53200	11788
2	1155	53849	12034
2	1162	53913	11687
2	1175	54716	12123
2	1194	55647	12612
2	1201	55777	12290
2	1208	56143	12176
2	1224	57147	12731
2	1231	57355	12158
2	1241	57455	12621
2	1260	58606	12624
2	1267	58842	13228
2	1277	59198	12790
2	1290	60054	13188
2	1297	60274	13004
2	1310	60665	13033
2	1329	61723	13699
2	1333	61858	13441
2	1340	62131	13267
2	1356	63062	13401
2	1363	63136	13883
2	1373	63444	13407
2	1389	64351	13371
2	1399	64886	14384
2	1406	65164	13802
2	1416	65576	13840
2	1432	66494	13869
2	1436	66605	14454
2	1449	67117	14092
2	1462	67778	14354
2	1478	68444	14564
2	1488	68815	14553
2	1498	69463	14725
2	1514	70258	15152
2	1524	70618	15089
2	1528	70683	14688
2	1544	71531	15075
2	1557	71981	15121
2	1564	72104	14876
2	1583	73132	15500
2	1596	73727	15222
2	1600	73823	15771
2	1616	74415	15488
2	1638	75543	15811
2	1642	75593	16248
2	1646	75763	15574
2	1668	76877	16235
2	1678	77310	16300
2	1685	77602	16125
2	1704	78792	16876
2	1711	78948	16597
2	1718	79289	16485
2	1734	80087	16845
2	1744	80526	16810
2	1754	80967	16781
2	1770	81518	16855
2	1774	81763	16703
2	1796	82876	17389
2	1806	83425	17553
2	1810	83435	17125
2	1829	84252	17129
2	1836	84648	17127
2	1846	84734	17983
2	1865	85872	17920
2	1872	86198	17408
2	1876	86338	17944
2	1904	87634	17565
2	1908	87647	18464
2	1918	88116	18487
2	1940	89399	18578
2	1944	89553	19119
2	1948	89598	18399
2	1976	90907	19320
2	1980	90966	18634
2	1990	91388	19427
2	2006	92241	19151
2	2016	92774	20050
2	2026	93182	19691
2	2039	93833	19926
2	2052	94502	20202
2	2056	94737	20046
2	2072	95406	20337
2	2082	95842	20333
2	2092	96218	20250
2	2108	97091	20682
2	2118	97319	20451
2	2122	97504	20236
2	2144	98547	20903
2	2154	99110	20993
2	2158	99113	20634
2	2171	99860	20960
2	2184	100378	20639
2	2197	101001	21630
2	2204	101186	21037
2	2220	102134	21555
2	2224	102206	21212
2	2240	102822	21393
2	2259	103746	21521
2	2263	103795	21995
2	2273	104217	21550
2	2292	105421	21547
2	2302	105583	22514
2	2306	105664	22167
2	2328	107083	22838
2	2332	107118	22423
2	2342	107351	22254
2	2361	108374	22422
2	2371	108779	22414
2	2378	108920	23446
2	2394	109720	22929
2	2404	110362	22747
2	2411	110533	23381
2	2430	111387	23330
2	2443	111924	23455
2	2447	111995	23151
2	2466	113142	23905
2	2473	113314	23299
2	2480	113593	23962
2	2502	114714	24336
2	2506	114875	23593
2	2516	115231	24405
2	2535	116311	24190
2	2542	116532	24879
2	2549	116602	24081
2	2568	117718	24720
2	2575	117976	24502
2	2582	118149	24268
2	2601	118992	24648
2	2611	119543	24783
2	2624	120004	24859
2	2628	120234	24722
2	2647	121173	25268
2	2657	121577	25194
2	2667	121952	25177
2	2674	122477	25267
2	2687	122953	25317
2	2700	123645	25564
2	2716	124380	25889
2	2723	124583	25681
2	2733	125225	25905
2	2752	126044	26283
2	2762	126465	26308
2	2766	126698	26143
2	2785	127670	26682
2	2792	127823	26445
2	2799	128156	26384
2	2824	129501	27268
2	2828	129580	26575
2	2832	129623	27023
2	2854	130848	26985
2	2864	130919	27536
2	2874	131374	27109
2	2896	132564	27893
2	2900	132620	27114
2	2904	132782	27711
2	2926	133982	28049
2	2930	134125	27734
2	2940	134439	27197
2	2956	135208	28353
2	2960	135426	27822
2	2976	136307	28297
2	2986	136673	27795
2	2993	136804	28404
2	3009	137828	28571
2	3022	138267	28640
2	3029	138466	28434
2	3048	139344	28871
2	3055	139698	28822
2	3059	139739	28490
2	3078	140897	29275
2	3088	141531	29005
2	3098	141580	29528
2	3117	142641	29667
2	3124	142953	29609
2	3128	143007	29249
2	3147	144122	29900
2	3157	144554	29469
2	3164	144596	29984
2	3180	145761	30275
2	3187	145789	29935
2	3197	146112	29874
2	3219	147352	30188
2	3226	147420	30713
2	3230	147682	30131
2	3252	148657	30358
2	3259	148967	30216
2	3266	149044	31107
2	3285	150102	30991
2	3295	150602	31091
2	3299	150648	30708
2	3318	151841	31466
2	3325	151985	31139
2	3329	151990	30733
2	3354	153190	31051
2	3358	153381	31714
2	3362	153542	30924
2	3384	154588	31136
2	3388	154728	31723
2	3395	154987	31064
2	3414	155889	31591
2	3424	156346	31657
2	3434	156730	31574
2	3444	157222	31686
2	3463	158173	32267
2	3467	158225	31846
2	3474	158579	31811
2	3496	159804	32653
2	3503	159894	32337
2	3513	160181	32190
2	3532	161586	32769
2	3539	161645	33237
2	3546	161715	32470
2	3562	162896	33206
2	3572	163165	33112
2	3582	163540	33096
2	3592	164125	33270
2	3602	164393	33146
2	3618	165387	33666
2	3625	165575	33465
2	3632	165750	33269
2	3651	166752	33811
2	3658	166987	33611
2	3671	167653	33859
2	3684	168489	33787
2	3688	168577	34323
2	3701	168948	33797
2	3720	169970	33939
2	3724	169991	34383
2	3734	170576	34142
2	3750	171188	34393
2	3754	171341	34138
2	3767	171991	34345
2	3783	172857	34418
2	3787	172918	34891
2	3800	173413	34507
2	3819	174321	34536
2	3826	174718	35382
2	3836	175174	34965
2	3852	175785	35109
2	3862	176267	35183
2	3869	176557	35001
2	3885	177362	35360
2	3895	177617	35220
2	3899	177842	34972
2	3918	178864	35108
2	3925	179065	35747
2	3935	179509	35389
2	3954	180359	35774
2	3958	180553	35555
2	3974	181339	35919
2	3990	182110	36327
2	3994	182235	36077
2	4004	182727	36204
2	4017	183345	36388
2	4033	183893	36557
2	4037	184043	36309
2	4050	184893	36756
2	4066	185495	36909
2	4076	185863	36871
2	4092	186777	37401
2	4096	186806	36991
2	4106	187257	36963
2	4125	188360	37277
2	4132	188666	37959
2	4136	188745	37274
2	4161	190129	38251
2	4168	190244	37975
2	4175	190358	37698
2	4194	191577	37530
2	4198	191640	38054
2	4202	191691	38564
2	4232	193170	38661
2	4234	193170	37816
2	4244	193390	38402
2	4260	194574	38403
2	4273	194979	39200
2	4280	195078	38509
2	4290	195804	38815
2	4306	196450	38633
2	4319	196895	39537
2	4329	197416	39158
2	4336	197961	39268
2	4349	198383	39326
2	4359	198811	39303
2	4378	199838	39911
2	4385	200049	39649
2	4398	200619	39758
2	4408	201270	39578
2	4421	201659	40361
2	4431	202087	39918
2	4447	202951	40362
2	4457	203280	40267
2	4461	203300	39856
2	4477	204337	40481
2	4484	204770	40018
2	4497	205037	40709
2	4513	206008	40879
2	4526	206361	40361
2	4533	206637	41047
2	4552	207825	41391
2	4562	208068	41155
2	4566	208149	40831
2	4588	209537	41777
2	4592	209658	41526
2	4602	209803	41205
2	4618	210912	41438
2	4628	211110	42059
2	4632	211247	41367
2	4654	212402	42086
2	4658	212493	41320
2	4668	212721	41981
2	4684	213807	41807
2	4694	214098	42508
2	4698	214169	41765
2	4717	215101	42294
2	4724	215477	41919
2	4731	215635	42457
2	4750	216690	42696
2	4760	217077	42671
2	4770	217429	42651
2	4786	218360	42643
2	4796	218572	43326
2	4806	219073	42920
2	4816	219583	43001
2	4826	220078	43023
2	4842	220893	42991
2	4846	220925	43465
2	4862	221770	43496
2	4872	222282	43614
2	4882	222525	43451
2	4892	223060	43553
2	4908	223856	43948
2	4918	224127	43834
2	4925	224433	43682
2	4944	225628	44016
2	4948	225664	44443
2	4961	226078	44053
2	4980	227242	44796
2	4984	227380	44487
2	4997	227876	44523
2	5016	228794	44610
2	5020	228796	44983
2	5030	229331	44768
2	5046	230310	44933
2	5056	230678	45663
2	5063	231000	45151
2	5085	231883	45144
2	5092	232058	45791
2	5102	232542	45379
2	5115	233318	45729
2	5125	233607	45651
2	5138	234233	45831
2	5145	234696	45858
2	5164	235364	46064
2	5171	235879	46153
2	5181	236238	46062
2	5188	236569	46016
2	5204	237227	46279
2	5217	237754	46434
2	5227	238230	46533
2	5237	238490	46421
2	5253	239570	47103
2	5260	239820	46912
2	5270	239978	46274
2	5292	241350	48075
2	5296	241536	47360
2	5306	241743	47093
2	5328	243115	47637
2	5332	243147	48135
2	5339	243448	47589
2	5358	244418	47317
2	5365	244475	48203
2	5375	244992	48270
2	5391	245903	47881
2	5398	246065	48503