version 2
run Iteration-1-20220517-20:06:25-5856
attr configname Iteration
attr datetime 20220517-20:06:25
attr experiment Iteration
attr inifile omnetpp.ini
attr iterationvars "$i=2, $0=12-2"
attr iterationvarsf i=2,12-2-
attr measurement "$i=2, $0=12-2"
attr network Network
attr processid 5856
attr repetition 0
attr replication #0
attr resultdir results
attr runnumber 1
attr seedset 1
itervar i 2
param **.resource_ordering.amount 2
param **.resource_delivery.amount 12-2
param **.source.interArrivalTime uniform(8min,6min)
param **.allocate_ordering.resourceModuleName "\"resource_ordering\""
param **.delay_ordering.delay uniform(24min,16min)
param **.deallocate_ordering.resourceModuleName "\"resource_ordering\""
param **.allocate_delivery.resourceModuleName "\"resource_delivery\""
param **.delay_delivery.delay uniform(32min,20min)
param **.deallocate_delivery.resourceModuleName "\"resource_delivery\""

vector 0 Network.allocate_ordering queueLength:vector ETV
attr interpolationmode sample-hold
attr title "queue length, vector"
vector 1 Network.allocate_delivery queueLength:vector ETV
attr interpolationmode sample-hold
attr title "queue length, vector"
vector 2 Network.sinkStat lifeTime:vector ETV
attr interpolationmode none
attr title "lifetime of arrived jobs, vector"
attr unit s
0	0	0	0
0	8	1158	1
0	10	1524	0
0	15	1623	1
0	17	2085	2
0	19	2230	1
0	24	2537	2
0	29	2819	1
0	34	2995	2
0	36	3427	3
0	38	3626	2
0	43	3795	3
0	48	4093	2
0	53	4225	3
0	58	4680	4
0	60	4807	3
0	68	5157	4
0	70	5204	3
0	75	5587	4
0	80	5990	3
0	85	6015	4
0	90	6425	3
0	95	6471	4
0	100	6835	5
0	105	7277	6
0	107	7363	5
0	112	7481	4
0	117	7674	5
0	122	8055	6
0	124	8435	7
0	126	8506	6
0	131	8554	5
0	142	8910	6
0	144	9339	7
0	146	9738	8
0	148	9815	7
0	156	9966	6
0	161	10103	7
0	166	10545	8
0	168	10943	9
0	170	11057	8
0	175	11074	7
0	180	11329	8
0	188	11719	9
0	190	12096	8
0	195	12109	9
0	197	12505	8
0	202	12535	9
0	210	13003	10
0	212	13393	9
0	217	13427	10
0	219	13566	9
0	227	13872	10
0	232	14336	11
0	234	14397	10
0	239	14572	9
0	244	14814	10
0	246	15185	11
0	254	15572	10
0	259	15633	11
0	261	15797	10
0	269	16045	11
0	274	16454	12
0	276	16731	11
0	281	16906	12
0	283	16961	11
0	291	17336	12
0	296	17766	13
0	298	17945	12
0	303	18122	11
0	308	18240	12
0	316	18703	13
0	318	19018	12
0	323	19179	13
0	328	19540	12
0	333	19551	13
0	338	20014	14
0	340	20176	13
0	348	20397	14
0	350	20857	15
0	352	20914	14
0	360	21259	15
0	362	21435	14
0	367	21652	15
0	372	21909	14
0	377	22049	15
0	379	22487	16
0	387	22814	15
0	392	22925	16
0	394	23038	15
0	402	23354	16
0	404	23824	15
0	409	23833	16
0	411	24055	15
0	419	24238	16
0	424	24710	17
0	426	24946	16
0	431	25147	17
0	436	25460	16
0	441	25578	17
0	446	25966	18
0	448	26108	17
0	456	26353	18
0	458	26718	17
0	463	26740	18
0	465	27181	19
0	470	27273	18
0	475	27592	19
0	480	27862	18
0	485	28029	19
0	487	28288	18
0	492	28434	19
0	500	28866	18
0	505	28882	19
0	510	29242	20
0	512	29504	19
0	517	29701	20
0	519	29974	19
0	524	30092	20
0	532	30488	21
0	534	30717	20
0	539	30940	21
0	541	30966	20
0	549	31330	21
0	551	31748	22
0	556	31794	21
0	561	32213	22
0	569	32306	21
0	574	32690	22
0	576	33067	23
0	578	33224	22
0	586	33512	23
0	588	33628	22
0	593	33959	23
0	599	34405	22
0	600	34405	23
0	605	34815	24
0	610	35008	23
0	615	35245	24
0	620	35571	23
0	627	35627	24
0	630	36021	25
0	632	36271	24
0	637	36404	25
0	639	36833	26
0	641	36872	25
0	649	37209	26
0	654	37417	25
0	659	37638	26
0	664	37951	25
0	669	38103	26
0	674	38473	27
0	676	38828	26
0	681	38859	27
0	683	38941	26
0	691	39253	27
0	693	39731	28
0	698	40160	27
0	703	40195	28
0	708	40364	27
0	716	40632	28
0	718	41094	29
0	723	41459	28
0	728	41485	29
0	730	41672	28
0	735	41920	29
0	740	42298	30
0	742	42448	29
0	747	42646	28
0	752	42749	29
0	757	43111	30
0	759	43484	31
0	764	43745	30
0	769	43945	31
0	771	43988	30
0	782	44367	31
0	784	44792	32
0	786	45037	31
0	791	45151	30
0	796	45234	31
0	804	45696	32
0	806	46110	33
0	808	46222	32
0	816	46539	31
0	821	46564	32
0	826	47036	33
0	828	47304	32
0	833	47424	33
0	838	47828	34
0	840	47852	33
0	845	48218	34
0	850	48566	33
0	855	48655	34
0	857	49023	35
0	862	49214	34
0	867	49426	35
0	872	49831	36
0	874	49937	35
0	879	50251	34
0	884	50303	35
0	892	50695	36
0	894	51028	35
0	899	51173	36
0	904	51440	35
0	909	51566	36
0	914	51932	37
0	916	52263	36
0	921	52298	37
0	923	52584	36
0	928	52754	37
0	936	53157	38
0	938	53259	37
0	943	53585	36
0	948	53634	37
0	953	54004	38
0	955	54435	37
0	960	54437	38
0	965	54580	37
0	973	54913	38
0	978	55391	39
0	980	55583	38
0	988	55816	39
0	990	55955	38
0	998	56275	39
0	1000	56568	38
0	1005	56739	39
0	1010	57155	40
0	1012	57344	39
0	1017	57583	38
0	1022	57601	39
0	1030	57976	40
0	1032	58333	39
0	1037	58355	40
0	1039	58719	41
0	1041	58744	40
0	1052	59144	41
0	1054	59590	42
0	1059	59762	41
0	1064	59978	40
0	1069	60055	41
0	1074	60421	42
0	1076	60746	41
0	1081	60849	42
0	1083	61225	43
0	1088	61267	42
0	1093	61667	43
0	1098	62067	42
0	1103	62078	43
0	1108	62278	42
0	1113	62535	43
0	1118	63013	44
0	1120	63246	43
0	1125	63487	44
0	1127	63695	43
0	1135	63857	44
0	1140	64243	45
0	1142	64360	44
0	1147	64678	45
0	1149	64858	44
0	1157	65148	45
0	1162	65603	46
0	1167	65678	45
0	1172	66008	44
0	1177	66033	45
0	1179	66429	46
0	1184	66819	47
0	1186	66951	46
0	1191	67112	45
0	1196	67208	46
0	1204	67687	47
0	1206	68012	46
0	1211	68120	45
0	1216	68124	46
0	1224	68556	47
0	1226	68969	48
0	1228	69269	47
0	1233	69363	46
0	1238	69397	47
0	1243	69795	48
0	1248	70274	49
0	1253	70601	48
0	1258	70628	47
0	1263	70728	48
0	1268	71114	49
0	1270	71532	50
0	1272	71619	49
0	1283	71980	50
0	1285	72026	49
0	1290	72395	50
0	1292	72779	51
0	1294	73051	50
0	1299	73213	49
0	1304	73237	50
0	1312	73655	51
0	1314	74127	52
0	1316	74216	51
0	1321	74301	50
0	1326	74551	51
0	1331	74938	52
0	1336	75266	51
0	1341	75333	52
0	1343	75436	51
0	1348	75779	52
0	1353	76154	53
0	1358	76486	52
0	1363	76551	53
0	1365	76685	52
0	1373	76923	53
0	1378	77302	54
0	1380	77675	53
0	1385	77765	54
0	1387	77959	53
0	1395	78136	54
0	1400	78603	55
0	1402	78675	54
0	1407	79025	55
0	1409	79175	54
0	1417	79418	55
0	1422	79868	56
0	1424	79875	55
0	1429	80246	56
0	1434	80611	55
0	1439	80707	56
0	1444	81149	57
0	1446	81288	56
0	1454	81567	57
0	1456	81761	56
0	1461	82029	57
0	1463	82349	56
0	1471	82427	57
0	1473	82846	58
0	1478	83105	57
0	1486	83309	58
0	1488	83528	57
0	1493	83783	58
0	1498	84169	59
0	1500	84184	58
0	1505	84612	59
0	1507	84719	58
0	1518	84987	59
0	1520	85467	60
0	1522	85468	59
0	1530	85843	60
0	1535	86120	59
0	1540	86221	60
0	1542	86608	59
0	1547	86614	60
0	1552	87021	61
0	1554	87405	62
0	1556	87537	61
0	1564	87710	60
0	1569	87800	61
0	1574	88244	62
0	1576	88685	61
0	1581	88686	62
0	1583	88960	61
0	1591	89090	62
0	1596	89508	63
0	1598	89983	64
0	1600	90002	63
0	1605	90077	62
0	1610	90344	63
0	1618	90781	64
0	1620	91052	63
0	1625	91153	64
0	1627	91228	63
0	1632	91584	64
0	1640	91988	65
0	1642	92200	64
0	1647	92226	63
0	1652	92349	64
0	1660	92813	65
0	1662	93187	66
0	1664	93378	65
0	1669	93413	64
0	1680	93664	65
0	1682	94106	66
0	1684	94542	67
0	1686	94562	66
0	1691	94576	65
0	1699	94935	66
0	1704	95356	67
0	1706	95588	66
0	1711	95684	65
0	1716	95735	66
0	1721	96096	67
0	1726	96552	68
0	1728	96816	67
0	1733	96845	66
0	1738	97002	67
0	1743	97371	68
0	1748	97844	69
0	1750	97975	68
0	1755	98148	67
0	1763	98263	68
0	1768	98707	69
0	1770	99184	70
0	1772	99191	69
0	1777	99240	68
0	1785	99640	69
0	1790	100074	70
0	1792	100275	69
0	1797	100346	68
0	1802	100464	69
0	1804	100918	70
0	1812	101283	71
0	1814	101337	70
0	1819	101352	69
0	1824	101695	70
0	1832	102061	71
0	1834	102436	70
0	1839	102486	71
0	1841	102569	70
0	1846	102953	71
0	1854	103428	72
0	1856	103617	71
0	1861	103670	70
0	1866	103853	71
0	1874	104231	72
0	1876	104613	73
0	1878	104689	72
0	1886	104946	71
0	1891	104994	72
0	1896	105465	73
0	1898	105814	72
0	1903	105943	73
0	1908	106317	72
0	1916	106353	73
0	1918	106718	74
0	1920	106928	73
0	1925	107107	74
0	1927	107541	75
0	1932	107703	74
0	1937	107894	73
0	1942	107931	74
0	1947	108354	75
0	1952	108777	76
0	1957	108926	75
0	1962	109118	74
0	1967	109247	75
0	1972	109723	76
0	1974	110110	77
0	1976	110124	76
0	1981	110173	75
0	1992	110586	76
0	1994	111053	77
0	1996	111316	76
0	2001	111504	75
0	2009	111533	76
0	2014	111917	77
0	2016	112336	78
0	2021	112571	77
0	2026	112621	76
0	2031	112706	77
0	2036	113163	78
0	2038	113568	79
0	2040	113941	78
0	2045	113964	79
0	2047	113985	78
0	2055	114325	79
0	2060	114773	80
0	2062	114946	79
0	2067	115012	78
0	2072	115133	79
0	2080	115592	80
0	2082	115974	81
0	2084	116194	80
0	2089	116332	79
0	2094	116349	80
0	2102	116731	81
0	2104	117093	82
0	2106	117454	83
0	2111	117564	82
0	2116	117645	81
0	2124	117902	82
0	2126	118367	83
0	2128	118748	82
0	2133	118803	83
0	2135	118934	82
0	2146	119278	83
0	2148	119746	82
0	2153	119754	83
0	2155	120128	82
0	2160	120176	83
0	2165	120653	84
0	2170	121039	83
0	2175	121070	84
0	2177	121140	83
0	2185	121447	84
0	2190	121844	85
0	2192	122154	84
0	2197	122270	85
0	2202	122323	84
0	2210	122690	85
0	2212	123063	86
0	2214	123171	85
0	2219	123474	86
0	2224	123624	85
0	2229	123856	86
0	2234	124273	87
0	2236	124513	86
0	2241	124661	85
0	2246	124723	86
0	2254	125097	87
0	2256	125497	86
0	2261	125508	87
0	2263	125878	88
0	2268	126072	87
0	2276	126281	88
0	2278	126532	87
0	2283	126718	88
0	2288	127177	89
0	2290	127403	88
0	2295	127584	89
0	2297	127821	88
0	2305	127950	89
0	2310	128346	90
0	2312	128794	89
0	2317	128797	90
0	2319	128869	89
0	2327	129220	90
0	2332	129667	91
0	2334	129812	90
0	2340	130141	89
0	2341	130141	90
0	2352	130561	91
0	2354	130933	90
0	2359	131020	91
0	2361	131207	90
0	2366	131432	91
0	2374	131899	92
0	2376	132202	91
0	2381	132289	90
0	2386	132308	91
0	2394	132696	92
0	2396	133153	93
0	2404	133567	92
0	2409	133583	91
0	2414	133625	92
0	2416	133990	93
0	2418	134353	94
0	2420	134733	93
0	2425	134783	94
0	2430	134853	93
0	2435	135164	94
0	2440	135637	95
0	2442	135805	94
0	2447	135993	93
0	2452	135999	94
0	2457	136391	95
0	2462	136815	96
0	2464	137076	95
0	2472	137197	94
0	2477	137240	95
0	2479	137682	96
0	2484	138043	97
0	2486	138221	96
0	2491	138273	95
0	2496	138497	96
0	2504	138973	97
0	2506	139397	98
0	2508	139408	97
0	2513	139439	96
0	2518	139773	97
0	2526	140192	98
0	2528	140629	99
0	2530	140729	98
0	2535	140788	97
0	2540	141093	98
0	2548	141461	99
0	2550	141814	98
0	2555	141887	99
0	2557	141979	98
0	2562	142286	99
0	2570	142676	100
0	2575	143046	101
0	2577	143084	100
0	2582	143248	99
0	2590	143449	100
0	2592	143826	101
0	2594	144136	100
0	2599	144238	101
0	2601	144638	100
0	2606	144640	101
0	2614	145022	102
0	2616	145177	101
0	2621	145469	102
0	2626	145852	103
0	2628	145858	102
0	2636	146302	103
0	2638	146414	102
0	2646	146752	103
0	2648	146887	102
0	2653	147197	103
0	2655	147495	102
0	2660	147646	103
0	2665	148029	104
0	2667	148031	103
0	2678	148483	104
0	2680	148730	103
0	2685	148846	104
0	2690	149066	103
0	2695	149237	104
0	2700	149691	105
0	2702	149818	104
0	2707	150147	105
0	2709	150400	104
0	2714	150568	105
0	2722	151045	106
0	2724	151127	105
0	2729	151444	106
0	2734	151659	105
0	2742	151841	106
0	2744	152250	105
0	2749	152296	106
0	2754	152697	107
0	2756	153018	106
0	2761	153115	107
0	2763	153401	106
0	2774	153558	107
0	2776	153964	108
0	2778	154192	107
0	2783	154333	108
0	2785	154614	107
0	2793	154810	108
0	2798	155245	109
0	2800	155584	108
0	2808	155632	109
0	2810	155825	108
0	2815	156000	109
0	2817	156431	110
0	2822	156857	111
0	2824	156947	110
0	2829	157058	109
0	2837	157298	110
0	2842	157724	111
0	2844	158037	110
0	2849	158179	111
0	2851	158407	110
0	2856	158561	111
0	2864	158964	112
0	2866	159054	111
0	2871	159372	112
0	2873	159488	111
0	2884	159847	112
0	2886	160048	111
0	2891	160216	112
0	2893	160577	111
0	2898	160689	112
0	2903	161079	113
0	2905	161113	112
0	2913	161503	113
0	2915	161637	112
0	2926	161959	113
0	2928	162363	112
0	2933	162375	113
0	2935	162786	114
0	2940	163039	113
0	2945	163250	114
0	2950	163588	113
0	2955	163628	114
0	2960	164077	115
0	2962	164133	114
0	2967	164514	115
0	2969	164784	114
0	2974	164887	115
0	2982	165141	114
0	2987	165354	115
0	2989	165752	116
0	2991	165846	115
0	2999	166110	114
0	3004	166227	115
0	3009	166643	116
0	3014	166844	115
0	3019	167053	116
0	3024	167467	117
0	3026	167517	116
0	3031	167856	117
0	3036	168212	116
0	3041	168238	117
0	3043	168551	116
0	3051	168600	117
0	3056	169013	118
0	3058	169408	119
0	3063	169527	118
0	3071	169840	119
0	3073	169982	118
0	3078	170203	119
0	3080	170603	118
0	3085	170683	119
0	3087	171132	120
0	3089	171289	119
0	3097	171509	120
0	3105	171927	121
0	3107	171999	120
0	3112	172403	121
0	3114	172619	120
0	3122	172838	121
0	3124	173064	120
0	3129	173228	121
0	3134	173636	122
0	3136	173856	121
0	3144	174083	122
0	3146	174167	121
0	3151	174478	122
0	3156	174850	123
0	3158	174961	122
0	3163	175235	121
0	3168	175301	122
0	3173	175738	123
0	3178	176109	124
0	3180	176148	123
0	3185	176568	124
0	3187	176629	123
0	3198	177014	124
0	3200	177327	123
0	3205	177418	124
0	3207	177859	125
0	3212	177972	124
0	3217	178334	125
0	3222	178472	124
0	3230	178806	125
0	3232	179189	124
0	3237	179205	125
0	3242	179625	124
0	3247	179647	125
0	3249	180089	126
0	3254	180503	125
0	3259	180520	126
0	3261	180841	125
0	3269	180946	126
0	3274	181371	127
0	3276	181522	126
0	3281	181839	127
0	3286	182065	126
0	3294	182303	127
0	3296	182647	126
0	3304	182764	127
0	3306	183183	128
0	3311	183442	127
0	3316	183550	128
0	3318	183796	127
0	3326	184022	128
0	3328	184392	129
0	3330	184477	128
0	3335	184810	129
0	3337	184914	128
0	3345	185275	129
0	3350	185639	130
0	3352	185875	129
0	3357	185947	128
0	3362	186051	129
0	3370	186456	130
0	3372	186914	131
0	3374	186932	130
0	3379	187056	129
0	3390	187393	130
0	3392	187820	131
0	3394	188075	130
0	3402	188186	131
0	3404	188228	130
0	3409	188567	131
0	3414	188996	132
0	3416	189102	131
0	3421	189406	132
0	3426	189627	131
0	3431	189790	132
0	3436	190254	133
0	3441	190419	132
0	3446	190634	133
0	3448	190838	132
0	3453	191055	133
0	3458	191429	132
0	3463	191456	133
0	3465	191854	134
0	3473	192161	133
0	3478	192326	134
0	3480	192668	133
0	3485	192690	134
0	3490	193144	135
0	3495	193510	134
0	3500	193612	135
0	3502	193657	134
0	3507	194076	135
0	3512	194470	136
0	3514	194680	135
0	3519	194882	136
0	3524	195090	135
0	3532	195360	136
0	3534	195731	137
0	3539	196119	136
0	3544	196128	137
0	3546	196426	136
0	3554	196559	137
0	3556	197017	138
0	3558	197186	137
0	3563	197480	138
0	3565	197796	137
0	3576	197939	138
0	3578	198317	139
0	3580	198472	138
0	3585	198748	139
0	3587	198778	138
0	3595	199216	139
0	3600	199633	140
0	3602	199660	139
0	3610	200064	138
0	3615	200079	139
0	3617	200511	140
0	3622	200688	139
0	3627	200896	140
0	3629	201285	139
0	3634	201333	140
0	3642	201809	141
0	3644	201920	140
0	3649	202257	141
0	3651	202430	140
0	3659	202666	141
0	3664	203137	142
0	3666	203236	141
0	3674	203578	142
0	3676	203728	141
0	3681	203946	142
0	3683	204250	141
0	3691	204318	142
0	3696	204744	143
0	3698	204887	142
0	3703	205112	143
0	3705	205424	142
0	3713	205565	143
0	3718	205995	144
0	3720	205999	143
0	3725	206440	144
0	3730	206826	145
0	3732	206841	144
0	3737	207274	143
0	3742	207285	144
0	3750	207697	145
0	3752	207846	144
0	3757	208126	145
0	3759	208344	144
0	3767	208576	145
0	3769	208956	144
0	3774	209005	145
0	3782	209465	146
0	3787	209768	145
0	3792	209917	146
0	3794	210138	145
0	3799	210323	146
0	3804	210783	147
0	3806	210868	146
0	3811	211196	147
0	3813	211337	146
0	3824	211614	147
0	3826	211976	148
0	3831	212236	147
0	3836	212400	148
0	3841	212712	147
0	3846	212820	148
0	3848	213201	149
0	3850	213470	148
0	3855	213650	149
0	3857	213834	148
0	3865	214063	149
0	3870	214483	150
0	3872	214504	149
0	3880	214890	148
0	3885	214962	149
0	3890	215419	150
0	3892	215801	151
0	3894	215874	150
0	3902	216086	149
0	3907	216205	150
0	3909	216567	151
0	3914	216929	152
0	3916	216968	151
0	3921	217295	152
0	3923	217300	151
0	3931	217775	152
0	3936	218116	151
0	3941	218190	152
0	3946	218559	153
0	3948	218667	152
0	3956	218961	153
0	3958	219287	152
0	3963	219404	153
0	3968	219814	154
0	3970	219819	153
0	3975	220183	154
0	3977	220366	153
0	3985	220604	154
0	3990	221033	155
0	3992	221106	154
0	3997	221330	153
0	4002	221423	154
0	4007	221897	155
0	4012	222300	156
0	4014	222471	155
0	4019	222494	154
0	4024	222773	155
0	4032	223243	156
0	4034	223592	155
0	4039	223633	156
0	4041	223826	155
0	4052	224105	156
0	4054	224572	155
0	4059	224582	156
0	4061	224884	155
0	4066	225060	156
0	4074	225512	157
0	4076	225875	158
0	4078	225970	157
0	4086	226156	156
0	4091	226309	157
0	4093	226713	158
0	4098	227127	159
0	4100	227242	158
0	4105	227339	157
0	4110	227500	158
0	4118	227928	159
0	4120	228358	158
0	4125	228403	159
0	4127	228669	158
0	4132	228883	159
0	4140	229318	160
0	4142	229332	159
0	4150	229736	160
0	4152	229842	159
0	4157	230194	160
0	4159	230459	159
0	4167	230634	160
0	4169	231037	161
0	4171	231161	160
0	4182	231428	159
0	4187	231463	160
0	4189	231880	161
0	4191	232205	160
0	4199	232333	161
0	4204	232630	160
0	4209	232724	161
0	4214	233164	162
0	4216	233571	163
0	4218	233573	162
0	4226	233945	163
0	4228	234036	162
0	4236	234376	163
0	4238	234676	162
0	4243	234847	163
0	4248	235223	164
0	4250	235473	163
0	4255	235655	164
0	4257	235756	163
0	4265	236019	164
0	4270	236418	165
0	4272	236671	164
0	4277	236838	165
0	4279	237010	164
0	4287	237226	165
0	4292	237607	166
0	4297	238039	167
0	4299	238110	166
0	4307	238381	165
0	4312	238423	166
0	4314	238877	167
0	4316	239184	166
0	4321	239274	167
0	4323	239682	166
0	4328	239706	167
0	4336	240073	168
0	4338	240544	169
0	4340	240616	168
0	4348	240954	169
0	4350	240993	168
0	4358	241393	169
0	4360	241782	170
0	4362	241983	169
0	4367	242214	170
0	4372	242378	169
0	4380	242632	170
0	4382	243009	169
0	4387	243012	170
0	4389	243372	171
0	4397	243678	170
0	4402	243742	171
0	4404	243989	170
0	4409	244165	171
0	4414	244542	172
0	4416	244981	173
0	4421	245084	172
0	4426	245285	171
0	4431	245402	172
0	4436	245828	173
0	4438	246203	174
0	4440	246265	173
0	4445	246295	172
0	4453	246670	173
0	4458	247084	174
0	4460	247505	175
0	4462	247583	174
0	4467	247604	173
0	4472	247904	174
0	4480	248378	175
0	4482	248568	174
0	4487	248612	173
0	4492	248831	174
0	4494	249248	175
0	4502	249634	176
0	4504	249778	175
0	4509	249823	174
0	4514	250069	175
0	4522	250451	176
0	4524	250798	175
0	4529	250806	174
0	4534	250868	175
0	4539	251318	176
0	4544	251708	177
0	4546	251899	176
0	4551	251985	175
0	4556	252137	176
0	4564	252524	177
0	4566	252947	178
0	4568	253018	177
0	4579	253269	176
0	4584	253320	177
0	4586	253733	178
0	4588	254188	179
0	4593	254419	178
0	4598	254588	179
0	4600	254637	178
0	4608	255028	179
0	4611	255403	178
0	4612	255403	179
0	4617	255803	180
0	4619	256059	179
0	4630	256205	180
0	4632	256590	181
0	4634	256722	180
0	4642	257054	181
0	4644	257130	180
0	4649	257442	181
0	4651	257849	182
0	4656	258141	181
0	4661	258275	182
0	4669	258545	181
0	4674	258736	182
0	4676	259162	183
0	4678	259239	182
0	4683	259536	183
0	4685	259578	182
0	4696	259911	183
0	4698	260381	184
0	4700	260672	183
0	4708	260855	184
0	4710	260887	183
0	4718	261284	184
0	4720	261754	185
0	4722	261900	184
0	4727	262108	183
0	4732	262173	184
0	4740	262560	185
0	4742	263019	186
0	4744	263113	185
0	4752	263488	184
0	4757	263494	185
0	4762	263861	186
0	4764	264267	187
0	4766	264377	186
0	4771	264471	185
0	4776	264634	186
0	4784	265006	187
0	4786	265350	186
0	4791	265458	187
0	4793	265745	186
0	4801	265859	187
0	4803	266235	188
0	4808	266393	187
0	4816	266634	188
0	4818	266857	187
0	4823	267058	188
0	4825	267440	189
0	4830	267481	188
0	4835	267837	189
0	4837	268009	188
0	4842	268223	189
0	4850	268629	190
0	4852	268661	189
0	4857	269009	190
0	4859	269045	189
0	4867	269454	190
0	4872	269883	191
0	4874	269982	190
0	4879	270028	189
0	4890	270355	190
0	4892	270757	191
0	4894	271173	190
0	4899	271179	191
0	4904	271430	190
0	4909	271611	191
0	4914	272030	192
0	4916	272407	193
0	4918	272579	192
0	4926	272842	191
0	4931	272865	192
0	4936	273307	193
0	4938	273710	194
0	4940	273884	193
0	4948	274083	192
0	4953	274163	193
0	4958	274627	194
0	4960	275013	193
0	4965	275088	194
0	4973	275408	193
0	4978	275466	194
0	4980	275905	195
0	4982	276227	194
0	4987	276310	195
0	4992	276385	194
0	4997	276718	195
0	5002	277191	196
1	0	0	0
2	27	2725	2295
2	46	3864	3074
2	56	4257	3099
2	66	4937	3314
2	78	5635	3550
2	88	6244	3707
2	98	6722	3727
2	103	7234	3807
2	120	7830	4035
2	137	8652	4427
2	140	8757	4077
2	154	9842	4685
2	164	10304	4717
2	183	11351	5336
2	186	11677	5206
2	205	12680	5845
2	208	12969	5692
2	225	13814	6140
2	230	14265	6210
2	249	15244	6809
2	252	15279	6369
2	267	15828	6489
2	272	16340	6602
2	289	17275	7172
2	294	17454	6909
2	311	18267	7324
2	314	18381	7052
2	326	19479	7370
2	336	19564	7845
2	346	20302	7767
2	358	21137	8134
2	370	21810	8383
2	382	22574	8702
2	385	22719	8383
2	400	23288	8474
2	417	24192	9007
2	422	24263	8630
2	434	25385	9340
2	444	25892	9438
2	454	26188	9282
2	468	27209	9873
2	478	27811	10045
2	495	28528	10288
2	498	28682	9979
2	508	29231	10052
2	527	30197	10646
2	530	30389	10375
2	547	31325	10928
2	554	31756	10899
2	564	32221	10569
2	567	32271	11012
2	584	33429	11380
2	596	34152	11665
2	608	34977	12052
2	618	35380	12026
2	628	35627	11794
2	647	36915	12677
2	652	37323	12613
2	662	37912	12765
2	672	38254	12676
2	689	39227	13261
2	696	39839	13486
2	706	40304	13564
2	714	40458	13277
2	721	41384	13792
2	738	42138	14109
2	755	42960	14526
2	762	43556	14674
2	777	44012	14770
2	780	44120	14419
2	799	45471	14983
2	802	45636	15544
2	814	46245	14915
2	824	46654	15714
2	836	47482	15734
2	848	48364	16151
2	860	49071	16381
2	870	49724	16657
2	887	50347	16835
2	890	50468	16509
2	902	51328	16923
2	912	51615	16800
2	931	52779	17534
2	934	52815	17188
2	951	53782	17761
2	963	54498	18094
2	971	54854	18021
2	976	54923	17714
2	986	55661	18023
2	996	56001	17898
2	1008	56811	18338
2	1025	57636	18777
2	1028	57905	18652
2	1047	58858	18663
2	1050	59009	19278
2	1057	59601	18969
2	1072	60271	19177
2	1086	61251	19766
2	1096	61887	19967
2	1106	62085	19787
2	1116	62600	19851
2	1133	63855	20744
2	1138	64159	20675
2	1155	64878	20933
2	1160	65579	20787
2	1165	65615	21248
2	1182	66664	21430
2	1199	67392	21696
2	1202	67505	21395
2	1219	68368	21804
2	1222	68410	21374
2	1241	69759	22335
2	1246	70023	22195
2	1251	70488	22270
2	1266	70795	22140
2	1278	71887	22461
2	1281	71897	22874
2	1307	73327	23496
2	1310	73357	23054
2	1329	74911	24216
2	1334	75101	23928
2	1351	75889	24323
2	1356	76172	24240
2	1371	76733	23979
2	1376	77055	24757
2	1393	78070	24436
2	1398	78263	25106
2	1415	79206	25202
2	1420	79694	25257
2	1432	80355	25442
2	1442	80945	25554
2	1452	81496	25680
2	1469	82363	26088
2	1476	82864	26125
2	1484	83233	26078
2	1496	84157	26556
2	1513	84801	26446
2	1516	84921	26945
2	1528	85821	27102
2	1533	86031	26887
2	1550	86704	27114
2	1562	87571	27516
2	1572	87981	27560
2	1589	89036	28187
2	1594	89103	27878
2	1613	90442	28364
2	1616	90631	28964
2	1635	91706	29171
2	1638	91894	28881
2	1655	92452	28965
2	1658	92582	28725
2	1675	93563	29320
2	1678	93645	28967
2	1697	94796	29193
2	1702	95183	30035
2	1719	95902	29869
2	1724	96150	29721
2	1741	97108	30289
2	1746	97410	30202
2	1761	98225	30101
2	1766	98547	30860
2	1783	99493	30937
2	1788	99742	30773
2	1807	101041	31246
2	1810	101047	31650
2	1827	101827	31099
2	1830	101877	31603
2	1849	103004	31472
2	1852	103162	32048
2	1869	104033	31638
2	1872	104096	32116
2	1884	104935	32156
2	1894	105007	31770
2	1906	106158	32503
2	1914	106337	32210
2	1930	107686	33135
2	1945	107977	33039
2	1950	108564	33231
2	1955	108916	33137
2	1970	109393	33239
2	1987	110285	33734
2	1990	110322	33399
2	2007	111526	33761
2	2012	111598	34296
2	2019	112551	33948
2	2034	112772	34636
2	2053	114098	35073
2	2058	114435	35017
2	2075	115393	35147
2	2078	115461	35593
2	2097	116453	35746
2	2100	116472	35323
2	2109	117504	35937
2	2122	117786	35757
2	2141	119009	36163
2	2144	119123	36696
2	2163	120356	37047
2	2168	120689	36906
2	2183	121150	36981
2	2188	121580	36968
2	2200	122320	37333
2	2208	122658	37191
2	2222	123622	37401
2	2232	124003	38160
2	2249	124867	38253
2	2252	124884	37863
2	2266	125910	38110
2	2274	126166	38761
2	2286	127144	38900
2	2303	127900	39214
2	2308	128343	39253
2	2325	129025	39517
2	2330	129621	39638
2	2347	130301	39957
2	2350	130502	39721
2	2369	131632	40479
2	2372	131687	40103
2	2389	132409	40060
2	2392	132433	40445
2	2399	133419	40232
2	2402	133560	40747
2	2428	134785	41121
2	2438	135382	41276
2	2455	136292	41750
2	2460	136512	41577
2	2470	137169	41813
2	2482	137762	42027
2	2499	138892	42340
2	2502	138897	42801
2	2521	139816	42445
2	2524	139897	42895
2	2543	141227	42964
2	2546	141346	43502
2	2565	142334	43627
2	2568	142633	43449
2	2573	143032	42958
2	2588	143404	43764
2	2609	144819	44355
2	2612	145000	44082
2	2624	145608	44325
2	2634	146073	44378
2	2644	146693	44632
2	2663	147770	45284
2	2673	148154	45201
2	2676	148250	44822
2	2688	149038	45185
2	2698	149399	45168
2	2717	150609	45996
2	2720	150855	45861
2	2732	151635	46170
2	2740	151792	45849
2	2752	152471	46118
2	2769	153412	46694
2	2772	153510	46403
2	2791	154720	46789
2	2796	154888	47347
2	2806	155604	47250
2	2820	156485	47708
2	2835	157211	47964
2	2840	157361	47638
2	2859	158619	48509
2	2862	158944	48358
2	2879	159524	48471
2	2882	159636	48103
2	2901	160761	48844
2	2911	161149	48813
2	2921	161725	49019
2	2924	161896	48733
2	2938	162974	49406
2	2948	163502	49538
2	2958	163927	49602
2	2977	164904	50131
2	2980	165099	49966
2	2997	165975	50383
2	3007	166272	50298
2	3012	166649	50300
2	3022	167199	50468
2	3034	167893	50800
2	3049	168576	51122
2	3054	168917	51015
2	3061	169511	51144
2	3069	169803	51000
2	3095	171297	52019
2	3100	171603	51849
2	3103	171851	51675
2	3120	172684	52031
2	3132	173371	52301
2	3142	173984	52537
2	3154	174542	52698
2	3171	175731	53461
2	3176	175829	53139
2	3193	176794	53731
2	3196	176996	53522
2	3210	177929	54073
2	3220	178449	54176
2	3228	178563	53840
2	3240	179572	54475
2	3252	180143	54635
2	3267	180893	54612
2	3272	180950	55072
2	3284	182027	55309
2	3292	182196	55019
2	3302	182758	55174
2	3309	183330	55380
2	3324	183941	55595
2	3343	185015	56218
2	3348	185303	56083
2	3365	186257	56590
2	3368	186304	56163
2	3385	187113	56552
2	3388	187250	56230
2	3400	188140	56241
2	3412	188920	57488
2	3424	189528	56832
2	3434	189989	57681
2	3439	190403	57250
2	3456	191164	57539
2	3468	192103	58113
2	3471	192141	57788
2	3488	192911	58128
2	3493	193438	58274
2	3510	194376	58739
2	3522	195067	58676
2	3530	195326	59327
2	3537	196028	59213
2	3552	196440	59200
2	3571	197829	60147
2	3574	197880	59837
2	3593	198882	60385
2	3598	199422	60449
2	3608	199690	60293
2	3620	200593	60820
2	3637	201391	61199
2	3640	201803	61174
2	3657	202604	61511
2	3662	202967	61506
2	3672	203258	61371
2	3689	204286	62000
2	3694	204572	61896
2	3711	205470	62424
2	3716	205849	62400
2	3728	206526	62700
2	3745	207334	63096
2	3748	207529	62889
2	3765	208515	63493
2	3777	209090	63621
2	3780	209227	63375
2	3785	209766	63464
2	3802	210608	63856
2	3819	211408	64211
2	3822	211591	63945
2	3829	212204	64175
2	3839	212627	64144
2	3863	213912	65066
2	3868	214385	65148
2	3878	214782	65091
2	3888	215269	65122
2	3900	215911	65343
2	3912	216596	65551
2	3929	217704	66260
2	3934	217998	66157
2	3944	218424	66128
2	3954	218881	66184
2	3966	219699	66584
2	3983	220541	66983
2	3988	220853	66889
2	4005	221692	67359
2	4010	222241	67431
2	4027	222829	67197
2	4030	222953	67708
2	4047	223884	67453
2	4050	223933	67933
2	4069	225195	67897
2	4072	225267	68410
2	4084	226028	68304
2	4096	226757	68578
2	4113	227518	68554
2	4116	227552	68991
2	4135	228906	69059
2	4138	229082	69710
2	4148	229593	69377
2	4165	230542	69853
2	4177	231230	70151
2	4180	231308	69805
2	4197	232307	70348
2	4202	232571	70196
2	4212	233006	70220
2	4224	233860	70610
2	4234	234207	70579
2	4246	235113	71036
2	4263	235762	71248
2	4268	236295	71408
2	4285	237077	71723
2	4290	237597	71845
2	4295	238031	71804
2	4305	238225	71582
2	4331	239863	72396
2	4334	239892	72839
2	4346	240825	72969
2	4356	241328	73090
2	4370	242230	73630
2	4378	242613	73600
2	4392	243583	73743
2	4395	243672	74264
2	4412	244425	74222
2	4419	245068	74385
2	4434	245658	74526
2	4451	246663	75154
2	4456	247020	75093
2	4475	247930	75092
2	4478	247996	75593
2	4497	249400	76172
2	4500	249456	75820
2	4517	250230	75752
2	4520	250430	76347
2	4537	251222	76372
2	4542	251653	76352
2	4559	252327	76218
2	4562	252474	76736
2	4574	253141	76573
2	4577	253208	76194
2	4591	254397	76979
2	4606	254851	76992
2	4625	256107	77773
2	4628	256191	77385
2	4640	257013	77808
2	4654	257860	78213
2	4664	258463	77943
2	4667	258503	78414
2	4691	259616	78670
2	4694	259838	78467
2	4706	260850	79011
2	4716	261026	78723
2	4735	262185	79002
2	4738	262423	79659
2	4750	263334	79312
2	4760	263528	79978
2	4779	264683	80291
2	4782	264718	79908
2	4799	265789	80514
2	4806	266370	80731
2	4814	266593	80542
2	4828	267478	81022
2	4845	268304	81390
2	4848	268585	81192
2	4865	269307	81487
2	4870	269515	81329
2	4885	270200	81633
2	4888	270337	81341
2	4902	271256	81850
2	4912	271802	82012
2	4924	272662	82408
2	4934	272900	82266
2	4946	273963	82908
2	4956	274353	82897
2	4968	275358	83032
2	4971	275375	83521
2	4990	276325	83635
2	5000	277171	84027

