version 2
run Iteration-6-20220517-20:06:27-9132
attr configname Iteration
attr datetime 20220517-20:06:27
attr experiment Iteration
attr inifile omnetpp.ini
attr iterationvars "$i=7, $0=12-7"
attr iterationvarsf i=7,12-7-
attr measurement "$i=7, $0=12-7"
attr network Network
attr processid 9132
attr repetition 0
attr replication #0
attr resultdir results
attr runnumber 6
attr seedset 6
itervar i 7
param **.resource_ordering.amount 7
param **.resource_delivery.amount 12-7
param **.source.interArrivalTime uniform(8min,6min)
param **.allocate_ordering.resourceModuleName "\"resource_ordering\""
param **.delay_ordering.delay uniform(24min,16min)
param **.deallocate_ordering.resourceModuleName "\"resource_ordering\""
param **.allocate_delivery.resourceModuleName "\"resource_delivery\""
param **.delay_delivery.delay uniform(32min,20min)
param **.deallocate_delivery.resourceModuleName "\"resource_delivery\""

vector 0 Network.allocate_ordering queueLength:vector ETV
attr interpolationmode sample-hold
attr title "queue length, vector"
vector 1 Network.allocate_delivery queueLength:vector ETV
attr interpolationmode sample-hold
attr title "queue length, vector"
vector 2 Network.sinkStat lifeTime:vector ETV
attr interpolationmode none
attr title "lifetime of arrived jobs, vector"
attr unit s
0	0	0	0
1	0	0	0
1	407	18485	1
1	409	18521	0
1	787	34777	1
1	789	34781	0
1	797	35095	1
1	799	35164	0
1	1557	67169	1
1	1562	67395	0
1	2467	105379	1
1	2469	105473	0
1	3347	142309	1
1	3349	142315	0
1	4177	177173	1
1	4179	177206	0
1	4337	183740	1
1	4339	183800	0
1	4507	190959	1
1	4509	191069	0
1	5237	221294	1
1	5239	221312	0
1	5567	235055	1
1	5569	235065	0
1	6297	266327	1
1	6299	266499	0
1	6387	270070	1
1	6389	270071	0
2	40	3277	2538
2	43	3308	2935
2	64	4152	2958
2	70	4312	2646
2	80	4695	2562
2	94	5343	2742
2	107	5957	2949
2	114	6114	2684
2	120	6474	2652
2	130	6831	2591
2	144	7506	2905
2	147	7555	2531
2	160	8324	2925
2	166	8483	2685
2	177	8766	2506
2	183	9054	2367
2	207	10057	2446
2	210	10160	3003
2	224	10730	2734
2	230	11022	2618
2	237	11287	2499
2	257	12190	2959
2	260	12222	2598
2	274	12809	2790
2	287	13380	2925
2	294	13633	2708
2	303	14181	2869
2	310	14259	2531
2	317	14455	2304
2	334	15169	2612
2	340	15712	2742
2	347	15796	2452
2	360	16609	2865
2	377	17073	2963
2	380	17260	2788
2	390	17797	2852
2	411	18521	2702
2	414	18632	3241
2	417	18800	2583
2	434	19607	2940
2	440	19807	2357
2	446	20127	3095
2	453	20408	2516
2	463	20739	2398
2	480	21642	2837
2	497	22393	3119
2	503	22622	2906
2	517	23266	2713
2	527	23402	3285
2	537	23895	2958
2	544	24016	2708
2	550	24426	2662
2	557	24744	2604
2	567	25170	2586
2	573	25488	2515
2	594	26384	3021
2	600	26469	2631
2	614	27312	2996
2	624	27707	2925
2	630	28054	2876
2	640	28481	2838
2	643	28611	2602
2	653	28927	2460
2	670	29616	2673
2	673	29841	2423
2	687	30216	2343
2	700	31079	2801
2	714	31529	2814
2	717	31584	2431
2	726	32162	2603
2	740	32625	2671
2	750	33198	2810
2	760	33449	2689
2	770	33938	2760
2	791	34781	3146
2	801	35164	2748
2	804	35256	3225
2	810	35393	2613
2	827	36218	2994
2	830	36352	2752
2	833	36425	2372
2	850	37139	2636
2	853	37258	2340
2	877	38553	3264
2	880	38844	3126
2	890	39013	2830
2	900	39424	2333
2	906	39844	3183
2	920	40285	2739
2	930	40665	2692
2	944	41207	2785
2	957	41817	2922
2	960	42014	2754
2	963	42095	2424
2	973	42407	2355
2	983	42762	2243
2	1000	43714	2816
2	1014	44234	2866
2	1023	44735	2942
2	1037	45163	2951
2	1040	45373	2305
2	1050	45601	2963
2	1060	46163	2714
2	1070	46566	2664
2	1073	46670	2314
2	1090	47343	2616
2	1100	47834	2721
2	1103	47946	2370
2	1120	48773	2788
2	1123	49012	2580
2	1140	49680	2844
2	1143	49784	2549
2	1160	50372	2261
2	1170	50697	2984
2	1187	51604	2587
2	1190	51672	3109
2	1200	52036	2575
2	1214	52568	2705
2	1220	53022	2777
2	1227	53079	2428
2	1240	54026	2982
2	1250	54224	2761
2	1260	54692	2796
2	1270	55194	2886
2	1280	55332	2564
2	1297	56235	3025
2	1307	56671	3024
2	1314	57091	3041
2	1320	57268	2809
2	1323	57384	2451
2	1344	58340	3030
2	1350	58717	2977
2	1360	59108	2921
2	1374	59667	3019
2	1380	59824	2727
2	1390	60328	2757
2	1407	60942	2934
2	1414	61188	2710
2	1420	61385	2538
2	1433	62098	2875
2	1440	62303	2621
2	1450	62608	2519
2	1467	63466	2595
2	1477	63723	3262
2	1480	63981	2308
2	1483	64017	2755
2	1507	64958	2897
2	1510	65350	2878
2	1516	65396	2493
2	1530	65809	2539
2	1539	66110	2450
2	1564	67395	3258
2	1567	67452	2505
2	1570	67463	2883
2	1584	68151	2434
2	1590	68265	2912
2	1600	68907	2415
2	1606	69127	3017
2	1613	69216	2324
2	1637	70436	3093
2	1643	70829	2586
2	1650	71048	3254
2	1660	71299	2633
2	1670	71663	2627
2	1676	72112	2647
2	1694	72957	2608
2	1700	73049	3174
2	1710	73494	2666
2	1720	74118	2890
2	1733	74793	2239
2	1740	74805	3167
2	1743	74873	2786
2	1763	75992	3008
2	1774	76134	2744
2	1784	76556	2734
2	1790	76899	2669
2	1800	77343	2346
2	1810	77708	3113
2	1813	77938	2517
2	1833	78842	2976
2	1847	79246	2954
2	1850	79372	2686
2	1864	80017	2870
2	1874	80287	2673
2	1880	80684	2697
2	1887	80809	2419
2	1897	81339	2527
2	1903	81443	2252
2	1916	82343	2238
2	1919	82376	2741
2	1940	83396	2827
2	1957	84067	2707
2	1960	84193	3214
2	1977	84919	3080
2	1980	85001	2321
2	1987	85117	2853
2	2000	85901	2775
2	2017	86651	3049
2	2020	86965	2964
2	2030	87308	2903
2	2040	87649	2794
2	2050	88047	2715
2	2067	89034	3240
2	2077	89360	3094
2	2080	89363	2735
2	2090	89702	2689
2	2093	89775	2333
2	2117	91038	2740
2	2123	91119	3285
2	2126	91144	2422
2	2147	92102	2506
2	2150	92168	3041
2	2167	92812	2455
2	2170	92985	2995
2	2187	93711	2963
2	2200	94335	3219
2	2203	94363	2438
2	2214	94650	3109
2	2223	95083	2796
2	2233	95510	2783
2	2247	96109	2629
2	2250	96252	3154
2	2267	96945	3104
2	2274	97089	2405
2	2284	97466	3218
2	2297	98093	3036
2	2304	98431	2993
2	2310	98543	2643
2	2313	98745	2472
2	2337	99844	2682
2	2340	99919	3232
2	2352	100501	2873
2	2360	100648	2570
2	2363	100760	2259
2	2384	101762	2494
2	2387	101917	3018
2	2407	102803	2639
2	2410	102890	3190
2	2420	103466	2831
2	2426	103641	2533
2	2447	104267	2732
2	2454	104461	2531
2	2471	105473	3111
2	2477	105600	2877
2	2480	105713	2595
2	2490	106311	2832
2	2500	106780	2516
2	2510	106876	2993
2	2520	107628	2962
2	2530	107829	2717
2	2540	108220	2320
2	2550	108669	3189
2	2560	109107	2765
2	2570	109528	2295
2	2573	109859	3055
2	2590	110494	2794
2	2596	110766	2596
2	2610	111201	2631
2	2613	111460	2480
2	2630	112227	2813
2	2640	112623	2749
2	2650	112970	2714
2	2664	113465	2739
2	2670	113794	2601
2	2673	113927	2291
2	2693	114839	2400
2	2700	115165	3109
2	2713	115725	2456
2	2724	115927	3042
2	2730	116371	2668
2	2747	117028	2592
2	2754	117325	3250
2	2760	117647	2837
2	2774	118122	2872
2	2780	118470	2803
2	2797	119026	2486
2	2800	119123	2988
2	2810	119881	2972
2	2820	120070	2724
2	2827	120259	2525
2	2840	121092	2951
2	2850	121435	2438
2	2856	121744	3139
2	2863	121825	2364
2	2887	122999	3072
2	2897	123424	2628
2	2900	123645	3244
2	2917	124335	3125
2	2920	124455	2876
2	2926	124627	2621
2	2947	125447	2981
2	2957	126062	2760
2	2967	126226	3329
2	2970	126293	2611
2	2980	126836	2724
2	2990	127142	2651
2	3000	127660	2745
2	3017	128463	2713
2	3024	128527	3190
2	3030	128931	2744
2	3043	129699	3109
2	3050	129783	2829
2	3060	130294	2902
2	3077	131023	3175
2	3080	131038	2340
2	3083	131054	2749
2	3104	131944	2789
2	3110	132111	2558
2	3113	132285	2312
2	3137	133244	2803
2	3144	133422	2605
2	3150	133767	2553
2	3160	134126	2549
2	3163	134349	2403
2	3173	134747	2386
2	3194	135692	2895
2	3200	135939	2710
2	3203	136124	2430
2	3224	136934	2865
2	3234	137385	2872
2	3247	137889	2929
2	3257	138343	2996
2	3260	138443	2240
2	3263	138494	2698
2	3284	139415	2778
2	3290	139729	2701
2	3307	140529	3102
2	3310	140600	2268
2	3317	140896	3010
2	3327	141286	2508
2	3351	142315	3132
2	3354	142375	2829
2	3360	142668	2221
2	3367	142785	2770
2	3380	143707	2806
2	3386	143825	2528
2	3397	144048	2388
2	3410	144829	2797
2	3420	145314	2364
2	3430	145688	3182
2	3447	146365	3022
2	3450	146413	2644
2	3463	147087	2564
2	3474	147300	2368
2	3477	147397	3257
2	3487	147726	2343
2	3496	148366	2594
2	3507	148725	2527
2	3517	148920	2277
2	3530	149955	2947
2	3540	150252	2828
2	3547	150377	2519
2	3567	151372	3071
2	3577	151881	3114
2	3580	151955	2365
2	3590	152199	3001
2	3593	152352	2300
2	3610	153057	2563
2	3624	153598	2291
2	3627	153780	2917
2	3647	154800	3056
2	3650	154961	2395
2	3653	154970	2854
2	3663	155328	2299
2	3680	156104	2635
2	3697	157038	2745
2	3700	157091	3199
2	3710	157435	2702
2	3724	158122	2973
2	3730	158148	2526
2	3740	158858	2807
2	3750	159122	2695
2	3764	159777	2970
2	3777	160228	2943
2	3780	160334	2681
2	3786	160684	2558
2	3793	161061	2544
2	3814	161777	2785
2	3820	161947	2515
2	3830	162422	2615
2	3840	162877	2661
2	3846	163233	2582
2	3860	163466	2373
2	3870	164202	2685
2	3880	164746	2473
2	3890	164962	3072
2	3904	165679	2975
2	3917	166087	3015
2	3927	166636	3193
2	3930	166717	2385
2	3940	167047	3185
2	3950	167587	2787
2	3960	167900	2652
2	3970	168515	2813
2	3984	168880	2815
2	3994	169324	2826
2	4000	169712	2751
2	4017	170414	3085
2	4020	170613	2899
2	4030	171022	2874
2	4044	171282	2687
2	4057	172181	2774
2	4060	172299	3328
2	4070	172707	2886
2	4080	172912	2660
2	4093	173693	2660
2	4100	173936	3279
2	4110	174367	2900
2	4120	174718	2825
2	4126	174968	2615
2	4133	175233	2507
2	4150	175730	2546
2	4160	176261	2711
2	4181	177206	3186
2	4184	177310	2820
2	4194	177540	2675
2	4200	178106	2791
2	4206	178186	2507
2	4227	179114	2982
2	4232	179383	2890
2	4244	179779	2836
2	4250	180064	2706
2	4264	180702	2914
2	4270	180852	2690
2	4284	181525	2938
2	4290	181747	2732
2	4296	182011	2628
2	4310	182728	2441
2	4316	182783	2967
2	4341	183800	3088
2	4344	184066	2965
2	4350	184310	2378
2	4357	184546	3018
2	4370	185081	2314
2	4373	185111	2803
2	4383	185725	2518
2	4404	186637	2501
2	4410	186739	3062
2	4420	187442	2870
2	4434	187738	2693
2	4443	188243	2834
2	4446	188258	2386
2	4467	189313	3021
2	4470	189463	2760
2	4487	190179	3099
2	4493	190326	2864
2	4511	191069	3201
2	4517	191201	2971
2	4523	191685	3043
2	4530	191768	2682
2	4544	192267	2789
2	4550	192534	2651
2	4560	192937	2614
2	4577	193782	2617
2	4580	193910	3121
2	4594	194368	2791
2	4604	194699	2272
2	4610	195002	3024
2	4620	195445	2599
2	4630	195937	2718
2	4644	196575	2895
2	4657	197190	3090
2	4664	197271	2804
2	4670	197654	2713
2	4673	197699	2332
2	4686	198369	2577
2	4700	199010	2807
2	4706	199179	2518
2	4720	199681	2553
2	4730	200317	2748
2	4740	200687	2708
2	4757	201387	2629
2	4760	201525	3171
2	4763	201552	2404
2	4780	202100	2567
2	4787	202414	2480
2	4800	203177	2795
2	4803	203202	2388
2	4820	203774	2560
2	4823	203955	2354
2	4844	204870	2833
2	4857	205415	2942
2	4860	205686	2395
2	4870	205864	2955
2	4873	206029	2323
2	4890	206777	2615
2	4900	207373	2816
2	4914	207788	2791
2	4924	208285	2896
2	4930	208517	2764
2	4940	208838	2693
2	4950	209413	2854
2	4960	209761	2370
2	4963	209808	2811
2	4980	210491	2649
2	4990	210958	2651
2	4997	211154	2385
2	5014	211801	2180
2	5017	211918	2669
2	5034	212682	2681
2	5037	212685	2323
2	5047	213281	2531
2	5067	214288	2731
2	5070	214294	2320
2	5073	214369	3206
2	5093	215373	2468
2	5104	215604	3177
2	5110	216042	2337
2	5120	216451	3160
2	5137	216994	2554
2	5140	217270	3201
2	5147	217437	2565
2	5157	217831	2556
2	5170	218433	2756
2	5177	218683	2577
2	5183	219066	2550
2	5200	219893	2910
2	5217	220323	2880
2	5223	220808	2962
2	5241	221312	2998
2	5247	221736	2643
2	5254	221885	3159
2	5260	222167	2625
2	5270	222448	2497
2	5284	223188	2867
2	5290	223255	2504
2	5300	223867	2681
2	5314	224409	2824
2	5317	224524	2531
2	5327	224889	2502
2	5340	225526	2290
2	5350	225996	3174
2	5360	226411	2776
2	5373	227100	2545
2	5380	227264	3160
2	5397	228030	3033
2	5400	228121	2676
2	5414	228571	2360
2	5420	228821	2975
2	5430	229537	2961
2	5444	230002	3006
2	5450	230222	2831
2	5453	230290	2452
2	5470	231188	2470
2	5480	231405	3153
2	5493	232096	2974
2	5500	232172	2625
2	5517	233090	2683
2	5520	233131	3122
2	5533	233755	2545
2	5536	233837	3006
2	5557	234659	2975
2	5571	235065	3020
2	5574	235138	2659
2	5580	235412	2480
2	5590	235919	2617
2	5600	236576	2892
2	5614	236804	2710
2	5627	237490	3012
2	5630	237742	2838
2	5640	238013	2666
2	5654	238676	2866
2	5660	238821	2636
2	5670	239238	2656
2	5680	239710	2763
2	5690	240163	2800
2	5704	240905	3067
2	5710	241152	2913
2	5713	241334	2619
2	5730	241968	2784
2	5740	242466	2835
2	5746	242820	2753
2	5760	243168	2650
2	5767	243380	2396
2	5783	244544	3117
2	5790	244572	2732
2	5800	244923	2702
2	5806	245288	2593
2	5827	246031	2488
2	5830	246271	3111
2	5840	246785	2495
2	5854	247231	3307
2	5860	247614	2419
2	5863	247624	2902
2	5880	248556	2995
2	5883	248571	2545
2	5907	249542	3040
2	5910	249785	2865
2	5913	249820	2500
2	5923	250266	2467
2	5944	251155	2953
2	5947	251195	2588
2	5963	252109	3029
2	5970	252345	2368
2	5977	252503	2971
2	5990	253033	2679
2	6004	253632	2810
2	6010	253864	2587
2	6024	254724	3073
2	6030	254874	2824
2	6037	255139	2631
2	6050	255594	2633
2	6060	256169	2749
2	6074	256629	2792
2	6080	257016	2722
2	6090	257630	2896
2	6093	257778	2186
2	6103	258005	2845
2	6120	258842	2814
2	6130	259367	2449
2	6133	259448	2940
2	6150	260071	2708
2	6160	260683	2890
2	6166	260876	2645
2	6184	261646	2936
2	6190	262057	2905
2	6203	262547	2548
2	6206	262650	3045
2	6220	262950	2504
2	6233	263734	2901
2	6240	263983	2265
2	6246	264242	2930
2	6260	264837	2713
2	6270	265103	2612
2	6287	265761	2908
2	6301	266499	3238
2	6304	266503	2794
2	6317	266928	2850
2	6320	267180	2287
2	6330	267417	2968
2	6347	268325	2643
2	6354	268346	3076
2	6367	269076	2936
2	6370	269323	2788
2	6391	270071	3169
2	6394	270206	2865
2	6400	270596	2887
2	6410	270937	2819
2	6420	271264	2676
2	6430	271773	2721
2	6447	272261	2325
2	6450	272669	3209
2	6460	272785	2483
2	6477	273586	2532
2	6484	273775	3113
2	6490	274060	2634
2	6504	274731	2880
2	6510	275027	2327
2	6513	275086	2859
2	6534	276052	2873
2	6540	276421	2867
2	6550	276666	2714
2	6560	277130	2707
2	6563	277151	2365

