version 2
run Iteration-2-20220517-20:06:25-8244
attr configname Iteration
attr datetime 20220517-20:06:25
attr experiment Iteration
attr inifile omnetpp.ini
attr iterationvars "$i=3, $0=12-3"
attr iterationvarsf i=3,12-3-
attr measurement "$i=3, $0=12-3"
attr network Network
attr processid 8244
attr repetition 0
attr replication #0
attr resultdir results
attr runnumber 2
attr seedset 2
itervar i 3
param **.resource_ordering.amount 3
param **.resource_delivery.amount 12-3
param **.source.interArrivalTime uniform(8min,6min)
param **.allocate_ordering.resourceModuleName "\"resource_ordering\""
param **.delay_ordering.delay uniform(24min,16min)
param **.deallocate_ordering.resourceModuleName "\"resource_ordering\""
param **.allocate_delivery.resourceModuleName "\"resource_delivery\""
param **.delay_delivery.delay uniform(32min,20min)
param **.deallocate_delivery.resourceModuleName "\"resource_delivery\""

vector 0 Network.allocate_ordering queueLength:vector ETV
attr interpolationmode sample-hold
attr title "queue length, vector"
vector 1 Network.allocate_delivery queueLength:vector ETV
attr interpolationmode sample-hold
attr title "queue length, vector"
vector 2 Network.sinkStat lifeTime:vector ETV
attr interpolationmode none
attr title "lifetime of arrived jobs, vector"
attr unit s
0	0	0	0
0	11	1620	1
0	13	1856	0
0	18	2042	1
0	20	2062	0
0	25	2482	1
0	27	2485	0
0	32	2878	1
0	34	3094	0
0	39	3322	1
0	41	3428	0
0	59	4190	1
0	61	4301	0
0	92	5356	1
0	94	5652	0
0	102	5720	1
0	104	5778	0
0	109	6149	1
0	114	6333	0
0	122	6607	1
0	124	6849	0
0	129	7060	1
0	131	7162	0
0	139	7514	1
0	141	7536	0
0	152	7970	1
0	157	8238	0
0	182	9242	1
0	184	9384	0
0	195	9615	1
0	197	9753	0
0	252	12088	1
0	254	12279	0
0	272	12845	1
0	274	12871	0
0	332	15448	1
0	334	15482	0
0	359	16672	1
0	361	16820	0
0	399	18321	1
0	401	18378	0
0	419	19137	1
0	424	19197	0
0	442	19961	1
0	447	20109	0
0	472	21172	1
0	474	21443	0
0	492	21912	1
0	497	22072	0
0	502	22293	1
0	504	22437	0
0	522	23173	1
0	524	23213	0
0	542	24016	1
0	544	24038	0
0	552	24496	1
0	554	24520	0
0	579	25848	1
0	581	25870	0
0	682	30334	1
0	684	30457	0
0	702	31235	1
0	707	31259	0
0	712	31683	1
0	714	31725	0
0	722	32111	1
0	724	32154	0
0	732	32477	1
0	734	32698	0
0	742	32932	1
0	744	33026	0
0	752	33323	1
0	754	33385	0
0	769	34190	1
0	771	34222	0
0	782	34585	1
0	787	34805	0
0	792	34972	1
0	794	35141	0
0	799	35337	1
0	807	35657	0
0	812	35735	1
0	814	36004	0
0	822	36197	1
0	824	36464	0
0	829	36642	1
0	831	36672	0
0	842	37036	1
0	847	37245	0
0	852	37403	1
0	854	37691	0
0	859	37782	1
0	864	37884	0
0	869	38238	1
0	871	38515	0
0	879	38642	1
0	884	38995	0
0	899	39455	1
0	904	39681	0
0	912	39885	1
0	914	40192	0
0	922	40271	1
0	924	40507	0
0	929	40638	1
0	934	40851	0
0	939	41049	1
0	944	41228	0
0	949	41504	1
0	954	41782	0
0	962	41889	1
0	964	42125	0
0	976	42661	1
0	981	42809	0
0	989	43045	1
0	991	43409	0
0	999	43473	1
0	1001	43513	0
0	1009	43847	1
0	1014	44119	0
0	1019	44241	1
0	1021	44381	0
0	1039	45124	1
0	1044	45400	0
0	1062	45963	1
0	1064	46050	0
0	1072	46392	1
0	1074	46834	0
0	1079	46850	1
0	1081	47006	0
0	1092	47299	1
0	1094	47404	0
0	1102	47749	1
0	1104	48047	0
0	1109	48138	1
0	1114	48283	0
0	1122	48597	1
0	1124	48737	0
0	1132	49062	1
0	1134	49269	0
0	1139	49506	1
0	1141	49601	0
0	1146	49869	1
0	1154	49989	0
0	1162	50325	1
0	1164	50356	0
0	1169	50795	1
0	1171	51003	0
0	1202	52045	1
0	1204	52394	0
0	1232	53352	1
0	1234	53756	0
0	1239	53793	1
0	1241	53849	0
0	1252	54217	1
0	1254	54237	0
0	1262	54633	1
0	1264	54811	0
0	1292	55882	1
0	1295	56117	0
0	1302	56310	1
0	1307	56404	0
0	1312	56703	1
0	1314	56906	0
0	1329	57587	1
0	1334	57746	0
0	1342	58065	1
0	1344	58221	0
0	1352	58463	1
0	1354	58530	0
0	1359	58830	1
0	1364	59172	0
0	1369	59294	1
0	1374	59615	0
0	1379	59744	1
0	1381	59770	0
0	1392	60189	1
0	1394	60551	0
0	1399	60609	1
0	1401	60621	0
0	1419	61487	1
0	1424	61841	0
0	1432	61882	1
0	1434	61899	0
0	1452	62685	1
0	1454	63066	0
0	1459	63104	1
0	1461	63182	0
0	1466	63560	1
0	1474	63653	0
0	1479	63943	1
0	1484	64340	0
0	1489	64402	1
0	1491	64500	0
0	1509	65280	1
0	1511	65490	0
0	1519	65682	1
0	1521	65717	0
0	1529	66054	1
0	1534	66141	0
0	1542	66435	1
0	1544	66775	0
0	1549	66878	1
0	1551	67022	0
0	1559	67255	1
0	1564	67268	0
0	1572	67676	1
0	1574	67868	0
0	1579	68054	1
0	1587	68277	0
0	1592	68528	1
0	1594	68552	0
0	1602	68949	1
0	1607	69307	0
0	1612	69413	1
0	1614	69716	0
0	1632	70275	1
0	1634	70629	0
0	1639	70662	1
0	1644	70926	0
0	1649	71029	1
0	1657	71195	0
0	1662	71397	1
0	1664	71865	2
0	1666	71994	1
0	1671	72054	0
0	1676	72333	1
0	1678	72524	0
0	1692	72784	1
0	1694	73088	0
0	1712	73609	1
0	1714	73784	0
0	1722	74063	1
0	1724	74093	0
0	1742	74940	1
0	1744	75185	0
0	1749	75356	1
0	1754	75455	0
0	1762	75800	1
0	1764	75861	0
0	1772	76180	1
0	1774	76239	0
0	1792	77004	1
0	1794	77174	0
0	1802	77443	1
0	1807	77576	0
0	1812	77891	1
0	1814	78021	0
0	1819	78312	1
0	1821	78379	0
0	1829	78703	1
0	1831	78757	0
0	1839	79085	1
0	1844	79195	0
0	1849	79468	1
0	1851	79574	0
0	1862	79863	1
0	1864	80132	0
0	1892	81212	1
0	1894	81529	0
0	1922	82525	1
0	1924	82666	0
0	1952	83733	1
0	1954	83786	0
0	1992	85444	1
0	2000	85607	0
0	2005	85910	1
0	2007	85961	0
0	2022	86733	1
0	2024	86785	0
0	2029	87161	1
0	2031	87231	0
0	2039	87578	1
0	2044	87714	0
0	2055	88006	1
0	2057	88109	0
0	2105	90105	1
0	2107	90247	0
0	2122	90985	1
0	2124	91037	0
0	2132	91368	1
0	2134	91406	0
0	2152	92202	1
0	2154	92203	0
0	2169	93049	1
0	2174	93276	0
0	2202	94319	1
0	2204	94402	0
0	2265	96919	1
0	2267	97047	0
0	2272	97288	1
0	2274	97422	0
0	2292	98134	1
0	2294	98168	0
0	2302	98582	1
0	2304	98663	0
0	2309	98997	1
0	2317	99100	0
0	2339	100269	1
0	2347	100472	0
0	2371	101600	1
0	2374	101850	0
0	2382	102012	1
0	2387	102081	0
0	2392	102393	1
0	2397	102562	0
0	2402	102817	1
0	2404	103075	0
0	2416	103683	1
0	2424	103953	0
0	2429	104134	1
0	2434	104508	0
0	2439	104557	1
0	2441	104659	0
0	2459	105402	1
0	2464	105763	0
0	2469	105798	1
0	2471	105890	0
0	2492	106620	1
0	2494	106990	2
0	2496	107109	1
0	2501	107137	0
0	2506	107395	1
0	2508	107412	0
0	2522	107832	1
0	2524	108243	2
0	2529	108415	1
0	2534	108448	0
0	2539	108705	1
0	2541	108765	0
0	2552	109142	1
0	2554	109569	2
0	2556	109642	1
0	2564	109777	0
0	2572	110018	1
0	2574	110118	0
0	2579	110444	1
0	2584	110757	0
0	2589	110832	1
0	2594	111062	0
0	2599	111232	1
0	2601	111444	0
0	2612	111654	1
0	2614	112051	0
0	2619	112054	1
0	2621	112293	0
0	2626	112479	1
0	2634	112767	0
0	2639	112898	1
0	2644	113211	0
0	2649	113366	1
0	2651	113537	0
0	2659	113810	1
0	2664	114020	0
0	2699	115499	1
0	2701	115619	0
0	2712	115941	1
0	2714	115974	0
0	2732	116717	1
0	2734	117006	0
0	2762	117930	1
0	2764	117970	0
0	2769	118292	1
0	2774	118484	0
0	2789	119075	1
0	2794	119306	0
0	2799	119456	1
0	2801	119752	0
0	2809	119876	1
0	2814	120092	0
0	2819	120338	1
0	2824	120504	0
0	2839	121210	1
0	2844	121514	0
0	2849	121634	1
0	2854	121826	0
0	2869	122496	1
0	2874	122899	0
0	2879	122941	1
0	2881	123010	0
0	2902	123704	1
0	2904	123905	0
0	2909	124172	1
0	2911	124337	0
0	2922	124555	1
0	2924	124582	0
0	2932	124982	1
0	2934	125220	0
0	2941	125401	1
0	2944	125427	0
0	2972	126759	1
0	2974	126862	0
0	2982	127151	1
0	2984	127251	0
0	3002	128030	1
0	3004	128072	0
0	3012	128401	1
0	3014	128477	0
0	3039	129598	1
0	3044	129902	0
0	3049	129973	1
0	3051	130007	0
0	3065	130412	1
0	3067	130628	0
0	3072	130816	1
0	3074	131193	2
0	3079	131238	1
0	3084	131243	0
0	3089	131621	1
0	3094	131846	0
0	3102	132066	1
0	3104	132446	2
0	3106	132497	1
0	3111	132561	0
0	3122	132843	1
0	3127	133214	0
0	3132	133318	1
0	3134	133754	2
0	3136	133800	1
0	3141	133916	0
0	3149	134161	1
0	3154	134552	0
0	3159	134592	1
0	3161	134833	0
0	3176	135411	1
0	3178	135565	0
0	3189	135783	1
0	3194	136195	0
0	3209	136656	1
0	3211	136749	0
0	3219	137124	1
0	3221	137202	0
0	3259	138841	1
0	3261	138909	0
0	3275	139297	1
0	3277	139316	0
0	3285	139705	1
0	3287	139848	0
0	3312	140944	1
0	3314	141047	0
0	3339	142249	1
0	3341	142278	0
0	3365	143064	1
0	3367	143205	0
0	3372	143491	1
0	3374	143702	0
0	3402	144846	1
0	3404	145002	0
0	3432	146086	1
0	3434	146195	0
0	3452	146940	1
0	3454	146998	0
0	3462	147306	1
0	3464	147466	0
0	3469	147777	1
0	3474	147938	0
0	3482	148204	1
0	3484	148361	0
0	3489	148566	1
0	3491	148597	0
0	3502	149007	1
0	3504	149346	0
0	3509	149418	1
0	3511	149537	0
0	3529	150270	1
0	3534	150326	0
0	3562	151418	1
0	3564	151424	0
0	3702	157353	1
0	3704	157521	0
0	3792	161244	1
0	3797	161357	0
0	3805	161656	1
0	3807	161671	0
0	3812	162042	1
0	3814	162170	0
0	3822	162488	1
0	3824	162603	0
0	3975	169058	1
0	3977	169132	0
0	4049	172534	1
0	4054	172636	0
0	4072	173394	1
0	4074	173399	0
0	4082	173846	1
0	4084	173920	0
0	4089	174307	1
0	4091	174414	0
0	4099	174679	1
0	4101	174695	0
0	4122	175545	1
0	4124	175635	0
0	4152	176723	1
0	4154	176821	0
0	4172	177528	1
0	4174	177680	0
0	4192	178372	1
0	4194	178383	0
0	4232	180108	1
0	4234	180197	0
0	4262	181392	1
0	4264	181411	0
0	4282	182230	1
0	4284	182382	0
0	4302	183070	1
0	4307	183109	0
0	4329	184235	1
0	4334	184288	0
0	4352	185072	1
0	4357	185216	0
0	4379	186322	1
0	4384	186474	0
0	4412	187608	1
0	4414	187910	0
0	4435	188445	1
0	4437	188558	0
0	4442	188916	1
0	4444	189172	0
0	4449	189356	1
0	4451	189451	0
0	4469	190258	1
0	4474	190378	0
0	4479	190674	1
0	4484	190731	0
0	4502	191532	1
0	4504	191642	0
0	4532	192827	1
0	4534	192910	0
0	4562	194051	1
0	4564	194100	0
0	4572	194431	1
0	4574	194558	0
0	4582	194866	1
0	4584	195002	0
0	4609	196170	1
0	4614	196306	0
0	4622	196604	1
0	4624	196653	0
0	4642	197368	1
0	4644	197418	0
0	4722	200764	1
0	4724	200903	0
0	4772	202877	1
0	4774	203073	0
0	4802	204190	1
0	4807	204494	0
0	4832	205471	1
0	4834	205743	0
0	4852	206269	1
0	4854	206290	0
0	4862	206669	1
0	4864	207068	0
0	4882	207504	1
0	4884	207670	0
0	4889	207916	1
0	4894	208281	2
0	4896	208348	1
0	4901	208452	0
0	4906	208753	1
0	4914	208826	0
0	4919	209121	1
0	4924	209514	2
0	4926	209623	1
0	4931	209751	0
0	4952	210420	1
0	4954	210876	2
0	4956	211049	1
0	4964	211169	0
0	4982	211651	1
0	4984	212091	2
0	4986	212125	1
0	4991	212174	0
0	5012	212959	1
0	5014	213259	0
0	5019	213326	1
0	5021	213602	0
0	5052	214705	1
0	5054	214985	0
0	5059	215083	1
0	5061	215172	0
0	5082	215826	1
0	5084	215958	0
0	5102	216565	1
0	5104	216625	0
0	5155	218647	1
0	5157	218839	0
0	5179	219825	1
0	5184	220045	0
0	5212	221015	1
0	5214	221129	0
0	5219	221460	1
0	5221	221579	0
0	5249	222757	1
0	5251	222871	0
0	5265	223231	1
0	5267	223247	0
0	5299	224899	1
0	5303	225023	0
0	5312	225278	1
0	5314	225370	0
0	5332	226042	1
0	5334	226180	0
0	5339	226421	1
0	5347	226687	0
0	5362	227288	1
0	5364	227568	0
0	5369	227652	1
0	5371	227658	0
0	5382	228037	1
0	5384	228244	0
0	5389	228400	1
0	5394	228578	0
0	5409	229218	1
0	5411	229307	0
0	5419	229627	1
0	5421	229917	0
0	5429	230007	1
0	5437	230170	0
0	5442	230376	1
0	5444	230665	0
0	5452	230836	1
0	5454	231066	0
0	5459	231231	1
0	5461	231444	0
0	5469	231704	1
0	5471	231765	0
0	5492	232562	1
0	5497	232824	0
0	5519	233810	1
0	5524	234042	0
0	5542	234546	1
0	5544	234723	0
0	5549	234927	1
0	5554	235164	0
0	5572	235755	1
0	5574	235764	0
0	5582	236118	1
0	5584	236298	0
0	5592	236488	1
0	5597	236607	0
0	5609	237307	1
0	5615	237507	0
0	5642	238595	1
0	5644	238927	0
0	5649	239004	1
0	5651	239144	0
0	5665	239472	1
0	5667	239481	0
0	5672	239845	1
0	5674	239937	0
0	5699	241127	1
0	5701	241248	0
0	5712	241537	1
0	5714	241630	0
0	5722	241899	1
0	5724	242106	0
0	5732	242352	1
0	5737	242659	0
0	5742	242752	1
0	5747	242934	0
0	5752	243216	1
0	5754	243433	0
0	5762	243666	1
0	5764	243958	0
0	5769	244034	1
0	5771	244081	0
0	5779	244441	1
0	5781	244511	0
0	5786	244810	1
0	5794	245179	2
0	5796	245198	1
0	5801	245489	0
0	5809	245642	1
0	5811	245682	0
0	5819	246093	1
0	5821	246185	0
0	5899	249433	1
0	5901	249466	0
0	5942	251184	1
0	5944	251250	0
0	5959	252007	1
0	5964	252199	0
0	5969	252453	1
0	5974	252649	0
0	5992	253350	1
0	5994	253566	0
0	6002	253710	1
0	6004	253844	0
0	6019	254481	1
0	6027	254865	2
0	6029	254956	1
0	6034	255030	0
0	6042	255299	1
0	6044	255445	0
0	6052	255777	1
0	6054	256046	0
0	6152	260158	1
0	6154	260188	0
0	6175	261012	1
0	6177	261153	0
0	6182	261469	1
0	6184	261610	0
0	6219	263250	1
0	6221	263254	0
0	6322	267513	1
0	6327	267571	0
0	6335	267970	1
0	6337	268088	0
0	6369	269646	1
0	6371	269748	0
0	6379	270074	1
0	6387	270149	0
0	6395	270545	1
0	6397	270638	0
0	6422	271823	1
0	6424	271971	0
0	6442	272569	1
0	6447	272799	0
0	6452	273026	1
0	6454	273200	0
0	6459	273431	1
0	6461	273535	0
0	6472	273827	1
0	6474	274182	0
0	6479	274271	1
0	6484	274587	0
0	6496	275014	1
0	6504	275457	2
0	6509	275536	1
0	6514	275625	0
0	6529	276216	1
0	6534	276589	2
0	6536	276922	1
0	6541	276971	0
0	6546	277027	1
0	6548	277132	0
1	0	0	0
2	47	3545	3117
2	57	3835	2949
2	67	4319	3065
2	77	4759	2717
2	80	4822	3202
2	90	5056	2574
2	100	5703	2825
2	112	6304	2982
2	120	6554	2828
2	137	7358	3168
2	147	7628	3028
2	150	7823	2845
2	155	8216	2860
2	177	8830	3110
2	180	8995	2846
2	190	9532	2472
2	193	9587	2980
2	217	10554	3040
2	227	11058	3088
2	237	11359	2989
2	244	11549	2769
2	250	11881	2639
2	260	12333	2718
2	270	12587	2543
2	280	13174	2743
2	290	13521	2643
2	300	14011	2751
2	314	14559	2921
2	320	14613	2525
2	330	15166	2705
2	344	15746	2901
2	347	15773	2499
2	367	16863	3114
2	377	17208	3041
2	384	17281	2700
2	390	17471	2457
2	407	18487	3039
2	414	18552	2720
2	422	19143	2891
2	430	19205	2533
2	440	19834	2732
2	445	19995	2530
2	464	20703	2836
2	470	20777	2456
2	480	21523	2386
2	490	21874	3123
2	495	21955	2402
2	517	23061	3100
2	520	23063	2687
2	530	23347	2588
2	540	23931	2759
2	550	24224	2682
2	560	24781	2488
2	570	24956	3044
2	587	25891	3139
2	594	26069	2896
2	597	26193	2624
2	610	26890	2874
2	617	27164	2668
2	630	27740	2785
2	644	28368	2967
2	654	28840	2515
2	657	28850	3002
2	674	29606	2367
2	677	29813	3014
2	690	30542	2849
2	700	31186	3039
2	705	31238	2689
2	720	32092	3067
2	730	32202	2708
2	740	32733	2871
2	750	33222	2888
2	764	33751	2942
2	777	34312	3077
2	780	34403	2720
2	785	34776	2665
2	802	35521	3044
2	805	35582	2650
2	820	36114	2791
2	837	36822	3058
2	840	36959	2769
2	845	37242	2657
2	862	37854	2882
2	877	38586	3249
2	882	38688	2953
2	897	39137	2495
2	902	39588	3391
2	910	39881	2845
2	920	40220	2817
2	932	40784	3002
2	942	41213	2975
2	952	41632	2990
2	960	41839	2770
2	979	42722	3267
2	987	42985	3100
2	997	43451	3180
2	1007	43627	2578
2	1012	43897	3259
2	1031	44652	3148
2	1037	44915	2646
2	1042	45170	3281
2	1057	45754	3093
2	1060	45850	2805
2	1070	46310	2837
2	1087	47041	3194
2	1090	47276	2582
2	1100	47453	3212
2	1112	48218	3094
2	1120	48427	2841
2	1130	48755	2792
2	1149	49871	3021
2	1152	49881	3489
2	1160	50271	2972
2	1177	51062	3313
2	1187	51347	3209
2	1194	51447	2850
2	1200	51761	2699
2	1217	52661	3155
2	1220	52837	2512
2	1227	52903	3034
2	1247	53874	2641
2	1250	53912	3117
2	1260	54320	2693
2	1274	54964	2919
2	1287	55506	2992
2	1290	55867	2895
2	1299	56117	2324
2	1305	56353	3001
2	1320	57095	2878
2	1332	57658	3025
2	1340	57972	2973
2	1350	58329	2852
2	1362	58868	2986
2	1372	59512	3202
2	1387	59800	3097
2	1390	60183	3024
2	1411	60988	3401
2	1414	60994	2531
2	1422	61514	3449
2	1430	61850	2556
2	1440	62037	2293
2	1443	62199	3369
2	1469	63562	2953
2	1472	63583	3394
2	1482	63954	2921
2	1497	64703	3216
2	1507	65057	3175
2	1517	65523	3228
2	1527	65757	2653
2	1532	66112	3427
2	1540	66332	2772
2	1557	67050	2648
2	1562	67264	3321
2	1570	67597	2756
2	1582	68061	2781
2	1585	68239	2557
2	1600	68719	2665
2	1605	69182	2747
2	1624	69755	2877
2	1627	69797	2542
2	1642	70772	3096
2	1652	71148	3094
2	1655	71168	2640
2	1684	72525	3576
2	1687	72537	3124
2	1690	72607	2775
2	1707	73263	2601
2	1710	73382	3107
2	1720	73982	2953
2	1737	74495	3098
2	1740	74655	2790
2	1752	75392	2608
2	1760	75468	3135
2	1770	75897	2670
2	1780	76539	2930
2	1790	76822	2759
2	1800	77300	2812
2	1805	77528	2588
2	1827	78514	3158
2	1837	78935	3135
2	1842	79166	2986
2	1857	79649	2645
2	1860	79724	3099
2	1874	80293	2850
2	1887	81004	3113
2	1890	81107	2795
2	1904	81640	2937
2	1910	81879	2794
2	1913	81920	2452
2	1934	82815	2510
2	1944	83230	3367
2	1950	83668	2928
2	1964	83966	2280
2	1967	84013	2801
2	1980	84694	2646
2	1990	85405	2489
2	1995	85499	2219
2	1998	85588	3063
2	2020	86565	2832
2	2037	87239	3051
2	2042	87638	3044
2	2050	87979	2971
2	2053	88004	2560
2	2077	89107	3197
2	2087	89367	3034
2	2090	89413	2680
2	2100	89927	2766
2	2103	89990	2412
2	2117	90488	2482
2	2130	91349	2917
2	2144	91815	2981
2	2150	92095	2831
2	2167	92782	3153
2	2172	93053	2948
2	2180	93329	2789
2	2190	93665	2680
2	2200	93973	2605
2	2221	94995	2793
2	2224	95175	3333
2	2234	95513	2922
2	2247	96134	3085
2	2250	96289	2776
2	2257	96512	2580
2	2263	96846	2527
2	2280	97424	2628
2	2290	98072	2872
2	2300	98262	2588
2	2312	99024	2474
2	2315	99057	2947
2	2334	99778	2859
2	2342	100303	3015
2	2345	100329	2655
2	2360	100903	2769
2	2372	101600	3018
2	2380	101926	2929
2	2385	102063	2595
2	2395	102497	2663
2	2419	103760	3491
2	2422	103950	3233
2	2432	104259	3070
2	2447	104786	2774
2	2450	104896	3296
2	2462	105587	3194
2	2477	106023	2783
2	2480	106071	3254
2	2490	106480	2797
2	2514	107431	2874
2	2517	107570	3436
2	2520	107805	2793
2	2527	108353	2555
2	2547	108836	3434
2	2550	109127	2887
2	2562	109713	3093
2	2570	109793	2803
2	2582	110445	3050
2	2592	111061	3229
2	2607	111541	3298
2	2610	111643	2938
2	2629	112589	3447
2	2632	112734	2716
2	2642	112922	3353
2	2657	113789	3345
2	2662	113880	3048
2	2670	114099	2867
2	2684	114619	2965
2	2694	115040	2986
2	2707	115799	3320
2	2710	115869	2971
2	2720	116287	2921
2	2730	116520	2710
2	2747	117195	2951
2	2757	117588	2530
2	2760	117661	2967
2	2772	118478	2537
2	2780	118620	3121
2	2792	119282	2948
2	2807	119831	3114
2	2812	120023	2926
2	2822	120503	2964
2	2837	121126	3196
2	2842	121388	3096
2	2852	121693	2987
2	2867	122386	3311
2	2872	122558	3102
2	2891	123293	3417
2	2897	123310	2541
2	2900	123398	3060
2	2917	124465	2831
2	2920	124513	2476
2	2930	124592	3382
2	2942	125401	2905
2	2957	126106	2799
2	2960	126245	3304
2	2970	126692	2988
2	2980	127137	2965
2	2994	127579	3024
2	3000	127897	2915
2	3010	128294	2893
2	3020	128532	2664
2	3034	129125	2790
2	3042	129625	2866
2	3057	130013	2862
2	3060	130310	2280
2	3063	130334	2753
2	3077	131219	2818
2	3092	131841	3044
2	3100	132040	2823
2	3117	132620	3022
2	3120	132802	2829
2	3125	133178	2766
2	3147	134121	3305
2	3152	134365	3172
2	3174	135003	3382
2	3184	135639	3573
2	3187	135767	3321
2	3192	136127	3284
2	3204	136215	2897
2	3217	136807	3053
2	3231	137477	3316
2	3237	137639	3047
2	3240	137669	2667
2	3250	138009	2598
2	3267	138984	2328
2	3270	138995	3212
2	3273	139009	2773
2	3283	139622	2498
2	3300	140383	2797
2	3310	140689	2736
2	3320	141111	2680
2	3337	141928	3087
2	3347	142317	2612
2	3350	142367	3070
2	3357	142550	2374
2	3363	142931	2356
2	3387	143963	3019
2	3390	144083	2674
2	3400	144440	2588
2	3414	145085	2382
2	3420	145294	3045
2	3430	145895	2831
2	3444	146422	2931
2	3450	146611	2664
2	3460	147168	2776
2	3472	147855	2642
2	3480	148061	3215
2	3497	148708	2622
2	3500	148855	3236
2	3521	149729	3223
2	3527	150040	3100
2	3532	150308	3002
2	3544	150610	2833
2	3554	150917	2713
2	3557	151004	2438
2	3574	151800	2382
2	3580	151973	2966
2	3590	152378	2544
2	3607	153258	2988
2	3617	153576	2566
2	3620	153643	2994
2	3630	154087	2669
2	3633	154377	2508
2	3654	155271	2976
2	3667	155777	3094
2	3674	156008	2916
2	3677	156046	2485
2	3690	156651	2637
2	3700	156969	2546
2	3717	157838	2968
2	3720	158086	2800
2	3727	158197	2481
2	3751	159319	3187
2	3754	159355	2830
2	3760	159776	2855
2	3770	160085	2732
2	3780	160519	2693
2	3787	160665	2429
2	3795	161260	2561
2	3803	161653	2521
2	3820	162297	2687
2	3834	162869	2849
2	3844	163263	2882
2	3857	163844	2991
2	3864	164121	2877
2	3874	164582	2926
2	3887	165024	2982
2	3890	165228	2740
2	3904	165760	2816
2	3910	166103	2774
2	3920	166427	2725
2	3934	167043	2866
2	3940	167367	2757
2	3950	168049	3062
2	3960	168314	2458
2	3963	168421	2968
2	3973	168769	2435
2	3994	169927	3137
2	4004	170307	3082
2	4017	170858	3165
2	4024	171075	2932
2	4034	171394	2779
2	4040	171754	2696
2	4052	172608	3127
2	4060	172878	2925
2	4069	172980	2623
2	4080	173490	2656
2	4097	174539	3283
2	4107	174713	2632
2	4110	174832	3150
2	4120	175380	2846
2	4130	175667	2687
2	4144	176221	2375
2	4150	176460	3066
2	4160	177028	2721
2	4170	177370	2691
2	4187	178012	2897
2	4190	178087	2542
2	4200	178518	2572
2	4217	179274	2551
2	4220	179476	3156
2	4223	179603	2515
2	4240	180264	2736
2	4257	181112	3113
2	4260	181166	2794
2	4270	181539	2700
2	4280	182045	2776
2	4290	182420	2729
2	4300	182674	2566
2	4305	183103	2548
2	4327	183889	2497
2	4332	184241	3225
2	4347	184895	2665
2	4350	185019	3206
2	4355	185194	2532
2	4370	185558	2488
2	4382	186341	2893
2	4397	186880	2645
2	4404	187007	3134
2	4407	187103	2463
2	4427	188204	3132
2	4430	188347	2820
2	4433	188381	2443
2	4457	189509	3187
2	4464	189764	3006
2	4472	190348	3196
2	4482	190698	3090
2	4497	191246	3218
2	4500	191530	3085
2	4514	191943	2587
2	4517	191946	3030
2	4530	192639	2810
2	4540	192934	2676
2	4547	193154	2480
2	4553	193514	2437
2	4570	194374	2842
2	4580	194822	2839
2	4594	195197	2829
2	4607	195973	3146
2	4612	196281	2230
2	4620	196373	3184
2	4634	196804	3150
2	4637	196949	2518
2	4657	198068	3202
2	4660	198071	2772
2	4670	198439	2743
2	4684	198927	2757
2	4694	199420	2418
2	4700	199706	3102
2	4703	199781	2413
2	4713	200096	2289
2	4737	201281	3036
2	4747	201700	3010
2	4757	202167	3109
2	4760	202323	2834
2	4770	202766	2845
2	4780	203115	2728
2	4790	203384	2620
2	4800	203908	2687
2	4805	204295	2627
2	4827	205146	3069
2	4830	205189	2691
2	4847	206075	3198
2	4850	206209	2938
2	4860	206594	2847
2	4874	207108	2918
2	4880	207413	2766
2	4892	208048	2981
2	4909	208755	2883
2	4912	208824	3353
2	4922	209161	2892
2	4944	210058	2554
2	4947	210224	3095
2	4950	210244	3575
2	4962	211151	3235
2	4977	211463	2710
2	4980	211482	3201
2	5001	212503	2526
2	5007	212546	3425
2	5010	212823	3309
2	5027	213650	2774
2	5037	213996	3576
2	5044	214228	2960
2	5050	214666	3015
2	5071	215323	3232
2	5077	215469	2510
2	5080	215628	3095
2	5094	216188	2862
2	5100	216545	2754
2	5117	217156	2926
2	5131	217848	3143
2	5137	217938	2855
2	5147	218298	2844
2	5150	218544	2343
2	5153	218574	2748
2	5170	219155	2590
2	5182	220036	3044
2	5201	220516	2655
2	5204	220630	2363
2	5210	220704	3265
2	5231	221656	3009
2	5234	221840	2767
2	5244	222133	2669
2	5257	222889	3064
2	5260	223013	2738
2	5263	223085	2441
2	5284	223940	2925
2	5290	224128	2668
2	5304	225023	3160
2	5310	225277	2937
2	5327	225819	3062
2	5330	225859	2628
2	5342	226439	2802
2	5345	226645	2612
2	5360	227259	2798
2	5377	227944	3045
2	5380	227958	2680
2	5392	228526	2872
2	5407	229102	3060
2	5417	229385	2964
2	5427	229986	2334
2	5432	230112	3222
2	5435	230154	2866
2	5450	230720	2683
2	5467	231608	3208
2	5477	231834	3073
2	5487	232308	3090
2	5490	232340	2713
2	5495	232732	2725
2	5517	233392	3016
2	5522	233923	3087
2	5537	234217	2513
2	5540	234234	3003
2	5552	234952	2786
2	5567	235401	2839
2	5570	235408	2439
2	5580	236092	2734
2	5590	236418	2608
2	5595	236605	2421
2	5612	237449	2903
2	5619	237507	2580
2	5630	237987	2622
2	5640	238188	2433
2	5657	239282	2384
2	5660	239298	3180
2	5663	239421	2933
2	5691	240649	3342
2	5697	240981	3239
2	5707	241319	3188
2	5710	241399	2804
2	5720	241684	2680
2	5730	242327	2855
2	5735	242525	2680
2	5745	242834	2521
2	5760	243477	2728
2	5777	244164	3037
2	5789	244826	3289
2	5792	245044	3145
2	5807	245503	3151
2	5817	245703	2951
2	5827	246250	3034
2	5837	246692	3026
2	5847	247128	3094
2	5857	247414	2604
2	5860	247552	3111
2	5877	248345	3166
2	5884	248581	2488
2	5890	248688	3046
2	5907	249534	2963
2	5914	249839	2887
2	5920	250203	2342
2	5927	250251	2850
2	5940	251100	2489
2	5950	251259	3014
2	5962	252021	2998
2	5972	252542	3109
2	5980	252736	2839
2	5983	252738	2391
2	6000	253679	2884
2	6017	254127	2943
2	6022	254811	3224
2	6025	254850	2843
2	6040	255151	2698
2	6050	255650	2745
2	6064	256228	2878
2	6074	256687	2977
2	6087	257277	3175
2	6097	257754	3273
2	6100	257766	2901
2	6114	258451	3152
2	6127	258916	3139
2	6130	259150	2904
2	6140	259441	2732
2	6150	259997	2842
2	6164	260555	2947
2	6170	260841	2822
2	6173	260945	2452
2	6194	261739	2829
2	6207	262376	3043
2	6216	262788	3062
2	6231	263302	3144
2	6234	263386	2825
2	6244	264153	3141
2	6250	264289	2820
2	6253	264490	2587
2	6263	264645	2332
2	6273	265290	2502
2	6297	266377	3127
2	6304	266582	2881
2	6307	266593	2429
2	6317	266991	2401
2	6325	267559	2572
2	6333	267808	2401
2	6347	268395	2571
2	6360	268893	2682
2	6377	269900	3224
2	6382	270127	2614
2	6385	270137	3033
2	6393	270422	2452
2	6417	271533	3130
2	6420	271591	2716
2	6430	272014	2771
2	6440	272303	2657
2	6445	272659	2585
2	6467	273693	3148
2	6470	273808	2876
2	6482	274377	2965
2	6499	275117	3294
2	6502	275412	3225
2	6507	275461	2892
2	6527	275855	2424
2	6532	276495	3469

