version 2
run Iteration-5-20220517-20:06:27-11436
attr configname Iteration
attr datetime 20220517-20:06:27
attr experiment Iteration
attr inifile omnetpp.ini
attr iterationvars "$i=6, $0=12-6"
attr iterationvarsf i=6,12-6-
attr measurement "$i=6, $0=12-6"
attr network Network
attr processid 11436
attr repetition 0
attr replication #0
attr resultdir results
attr runnumber 5
attr seedset 5
itervar i 6
param **.resource_ordering.amount 6
param **.resource_delivery.amount 12-6
param **.source.interArrivalTime uniform(8min,6min)
param **.allocate_ordering.resourceModuleName "\"resource_ordering\""
param **.delay_ordering.delay uniform(24min,16min)
param **.deallocate_ordering.resourceModuleName "\"resource_ordering\""
param **.allocate_delivery.resourceModuleName "\"resource_delivery\""
param **.delay_delivery.delay uniform(32min,20min)
param **.deallocate_delivery.resourceModuleName "\"resource_delivery\""

vector 0 Network.allocate_ordering queueLength:vector ETV
attr interpolationmode sample-hold
attr title "queue length, vector"
vector 1 Network.allocate_delivery queueLength:vector ETV
attr interpolationmode sample-hold
attr title "queue length, vector"
vector 2 Network.sinkStat lifeTime:vector ETV
attr interpolationmode none
attr title "lifetime of arrived jobs, vector"
attr unit s
0	0	0	0
1	0	0	0
2	33	2690	2237
2	50	3636	2710
2	60	3970	2664
2	72	4477	2735
2	80	4801	2638
2	90	5378	2808
2	107	6061	3073
2	110	6099	2750
2	124	6726	2907
2	130	7050	2780
2	143	7657	3013
2	154	7914	2429
2	157	7932	2822
2	170	8542	2636
2	180	9152	2798
2	187	9321	2587
2	196	9952	2854
2	207	10110	2543
2	227	11130	3086
2	230	11209	2252
2	237	11378	2857
2	246	11918	2558
2	260	12409	2655
2	270	12940	2786
2	280	13201	2274
2	290	13849	3284
2	293	13918	2532
2	314	14712	2856
2	324	15240	2917
2	334	15644	2874
2	340	16004	2822
2	350	16417	2852
2	356	16520	2585
2	370	16958	2625
2	387	17784	2514
2	390	17789	2980
2	393	18161	2512
2	403	18402	2294
2	420	19189	2678
2	437	20202	3281
2	451	20576	3185
2	454	20648	2896
2	460	20860	2640
2	477	21571	2916
2	480	21818	2728
2	490	22124	2657
2	493	22293	2403
2	507	22623	2355
2	527	23780	2270
2	530	23872	3178
2	540	24201	3096
2	550	24789	2822
2	553	24799	2413
2	570	25321	2484
2	577	25648	2341
2	590	26510	2835
2	600	26898	2850
2	610	27231	2812
2	624	27803	2996
2	630	28002	2768
2	640	28395	2722
2	657	29172	3116
2	664	29426	2897
2	670	29693	2747
2	680	29940	2548
2	697	30815	2495
2	700	30932	3072
2	717	31602	2900
2	720	31737	2660
2	730	32200	2745
2	744	32734	2440
2	747	32778	2885
2	760	33346	2690
2	770	33798	2719
2	780	34489	2934
2	794	34842	2851
2	804	35187	2727
2	810	35431	2578
2	820	35993	2382
2	823	36173	2953
2	833	36305	2234
2	850	37330	2792
2	860	37854	2862
2	863	37894	2506
2	884	38800	2989
2	890	38878	2599
2	904	39644	2457
2	910	39773	3027
2	920	40439	2856
2	930	40873	2876
2	940	41185	2380
2	943	41296	2893
2	967	42399	3169
2	970	42573	2884
2	980	42927	2767
2	994	43501	2432
2	1004	43810	3172
2	1010	44129	2684
2	1024	44653	2821
2	1030	44953	2261
2	1033	45043	2748
2	1050	45762	2667
2	1057	46006	2451
2	1070	46864	2832
2	1080	47325	2881
2	1083	47334	2519
2	1093	47552	2361
2	1121	48797	3243
2	1127	48993	2985
2	1134	49415	2479
2	1144	49527	3039
2	1147	49893	2547
2	1153	49931	2220
2	1174	50957	2826
2	1180	51317	2797
2	1194	51755	2791
2	1203	52345	2913
2	1206	52348	2440
2	1224	52992	2710
2	1230	53295	2602
2	1247	54130	3050
2	1250	54190	2336
2	1260	54514	3074
2	1274	55171	2934
2	1277	55173	2479
2	1294	55889	2746
2	1300	56242	2647
2	1310	56914	2958
2	1323	57424	3095
2	1334	57607	2838
2	1340	57930	2725
2	1354	58544	2867
2	1364	58977	2462
2	1374	59379	3267
2	1377	59605	2631
2	1387	60102	2684
2	1393	60358	2463
2	1399	60608	2295
2	1420	61661	2873
2	1430	62212	2948
2	1447	62770	3078
2	1454	63142	2561
2	1460	63276	3105
2	1474	64007	2971
2	1480	64403	2959
2	1490	64577	2748
2	1500	65276	2972
2	1514	65666	2903
2	1520	65892	2650
2	1530	66183	2494
2	1544	66883	2449
2	1550	67328	2425
2	1557	67346	3279
2	1577	68294	2564
2	1584	68445	3078
2	1590	68622	2499
2	1604	69318	2764
2	1610	69458	2482
2	1620	69953	2603
2	1627	70220	2487
2	1644	71034	2883
2	1650	71234	2667
2	1653	71302	2346
2	1670	71899	2508
2	1680	72324	2497
2	1690	72944	2668
2	1700	73376	2733
2	1710	73793	2731
2	1724	74223	2739
2	1730	74595	2749
2	1736	74770	2557
2	1750	75144	2549
2	1757	75400	2387
2	1777	76434	2612
2	1780	76518	3069
2	1783	76533	2282
2	1800	77478	2826
2	1806	77801	2684
2	1824	78456	2489
2	1830	78629	3141
2	1847	79614	3190
2	1857	79801	2937
2	1864	79962	2695
2	1867	80193	2467
2	1873	80480	2353
2	1897	81580	3032
2	1900	81694	2775
2	1917	82292	3008
2	1927	82710	2953
2	1930	82782	2566
2	1951	83736	3143
2	1954	83908	2927
2	1960	84238	2890
2	1970	84442	2655
2	1977	84859	2690
2	1990	85395	2770
2	2007	86143	3061
2	2013	86513	3005
2	2020	86836	2883
2	2030	87116	2696
2	2043	87828	2948
2	2050	88010	2761
2	2067	88802	3090
2	2084	89392	3317
2	2087	89630	2716
2	2090	89750	2444
2	2096	89809	3323
2	2117	90663	2916
2	2127	91211	3101
2	2137	91645	3130
2	2143	91748	2772
2	2153	92223	2860
2	2174	93019	3255
2	2184	93453	3326
2	2191	93746	3240
2	2197	94002	3032
2	2204	94151	2805
2	2210	94356	2628
2	2220	94879	2702
2	2237	95639	3042
2	2240	95693	2706
2	2250	96137	2733
2	2264	96630	2760
2	2267	96737	2438
2	2287	97781	3079
2	2290	97876	2756
2	2300	98296	2757
2	2307	98425	2450
2	2313	98675	2251
2	2323	99241	2394
2	2340	99918	2653
2	2350	100186	2548
2	2360	100758	2670
2	2370	101289	2784
2	2376	101424	2521
2	2390	101997	2681
2	2400	102640	2844
2	2410	102786	2258
2	2420	103363	3205
2	2437	104021	3105
2	2440	104120	2763
2	2453	104918	3117
2	2460	105198	2921
2	2470	105473	2769
2	2480	105939	2774
2	2486	106130	2516
2	2507	106932	2471
2	2510	107125	3117
2	2531	107913	2235
2	2534	107915	2629
2	2537	107922	3014
2	2557	109011	2562
2	2560	109063	2991
2	2570	109673	2859
2	2587	110352	3113
2	2590	110397	2757
2	2600	110911	2804
2	2610	111284	2736
2	2627	111971	2555
2	2634	112115	3113
2	2643	112880	2995
2	2646	112917	2667
2	2656	113307	2593
2	2663	113532	2437
2	2691	114784	3220
2	2697	114921	2579
2	2700	115171	3220
2	2717	115766	2948
2	2720	115842	2271
2	2723	115867	2660
2	2751	117263	3228
2	2754	117444	3004
2	2760	117511	2604
2	2777	118440	3123
2	2784	118533	2835
2	2787	118629	2487
2	2800	119442	2841
2	2810	119738	2246
2	2820	120060	3020
2	2827	120400	2482
2	2847	121373	2708
2	2850	121437	2393
2	2853	121483	3197
2	2874	122263	2780
2	2887	122915	2501
2	2890	123079	3132
2	2911	124001	3218
2	2914	124017	2863
2	2924	124563	3003
2	2930	124782	2859
2	2944	125295	2987
2	2950	125466	2722
2	2957	125837	2629
2	2977	126972	3308
2	2980	126985	2876
2	2994	127445	2880
2	3000	127723	2730
2	3017	128453	2996
2	3024	128812	2548
2	3030	128900	3027
2	3036	129330	2663
2	3050	129764	2644
2	3060	130286	2718
2	3077	131119	2685
2	3080	131240	3257
2	3090	131561	2684
2	3100	131858	2542
2	3117	132826	3105
2	3124	133019	2498
2	3130	133026	2875
2	3143	133879	2899
2	3146	133969	2588
2	3160	134254	2424
2	3177	135323	3078
2	3180	135327	2694
2	3194	135799	2775
2	3204	136148	2759
2	3210	136599	2366
2	3216	136683	2886
2	3230	137357	2684
2	3240	137957	2495
2	3243	137984	2913
2	3260	138839	2558
2	3274	139169	3317
2	3287	139836	3187
2	3294	140087	2983
2	3307	140681	2690
2	3310	140814	2376
2	3313	140834	3261
2	3330	141798	2891
2	3340	142109	2771
2	3343	142155	2401
2	3360	142863	2656
2	3370	143143	2514
2	3380	143832	2832
2	3390	144028	2654
2	3400	144410	2566
2	3407	144688	2475
2	3427	145601	2580
2	3430	145764	3190
2	3440	146308	2833
2	3454	146772	2891
2	3464	147348	3065
2	3470	147530	2802
2	3480	148110	2958
2	3490	148589	3008
2	3500	148746	2688
2	3517	149606	3105
2	3527	150026	3093
2	3534	150334	2973
2	3540	150869	3042
2	3554	151038	2783
2	3560	151413	2684
2	3563	151566	2377
2	3580	152315	2757
2	3583	152364	2403
2	3600	153132	2722
2	3614	153751	2863
2	3627	154443	2298
2	3630	154448	3189
2	3640	154850	3144
2	3654	155452	2838
2	3663	155891	2873
2	3673	156323	2909
2	3680	156483	2631
2	3690	156923	2654
2	3700	157527	2786
2	3710	157901	2786
2	3727	158666	3155
2	3730	158827	2945
2	3744	159347	3064
2	3753	159813	2664
2	3756	159848	3138
2	3770	160332	2736
2	3780	160772	2707
2	3790	161253	2752
2	3804	161892	2934
2	3810	162207	2858
2	3820	162503	2220
2	3827	162824	3012
2	3840	163515	2356
2	3843	163563	2849
2	3860	164372	2806
2	3863	164512	2486
2	3884	165347	2954
2	3894	165789	2949
2	3904	166161	2869
2	3907	166281	2559
2	3920	166754	2559
2	3927	167104	2541
2	3940	167741	2804
2	3950	168249	2850
2	3960	168467	2607
2	3963	168785	2469
2	3977	169208	2504
2	3990	169648	2482
2	4004	170508	2584
2	4010	170653	3110
2	4020	171125	2729
2	4030	171534	2721
2	4040	171966	2724
2	4045	172258	2619
2	4060	172840	2734
2	4067	173169	2595
2	4080	173861	2812
2	4090	174339	2384
2	4096	174545	3017
2	4117	175465	3030
2	4127	175786	2967
2	4137	176129	2534
2	4144	176299	3113
2	4147	176443	2407
2	4160	177138	2717
2	4170	177601	2754
2	4176	177814	2598
2	4183	177951	2323
2	4203	179116	3014
2	4217	179690	3187
2	4220	179764	2782
2	4230	180161	2769
2	4247	180823	3035
2	4250	181003	2828
2	4256	181209	2568
2	4274	181924	2812
2	4280	182451	2909
2	4290	182709	2749
2	4293	182814	2459
2	4314	183756	2978
2	4324	184164	2983
2	4330	184443	2851
2	4333	184590	2518
2	4343	184840	2298
2	4360	185768	2812
2	4370	186266	2877
2	4376	186410	2575
2	4390	186901	2686
2	4411	187790	3173
2	4414	187856	2773
2	4417	187997	2483
2	4430	188723	2367
2	4433	188833	2874
2	4454	189531	2795
2	4467	190240	3094
2	4477	190773	2749
2	4480	190787	3231
2	4490	191275	2816
2	4507	191998	3139
2	4510	192229	2899
2	4520	192437	2634
2	4530	192946	2729
2	4540	193256	2619
2	4550	193695	2593
2	4564	194244	2763
2	4570	194519	2668
2	4587	195394	3153
2	4590	195410	2757
2	4597	195590	2479
2	4610	196400	2845
2	4620	196625	2601
2	4630	197003	2611
2	4636	197428	2560
2	4654	198102	2797
2	4660	198527	2755
2	4677	199084	2946
2	4680	199188	2668
2	4694	199792	2904
2	4704	200144	2854
2	4714	200428	2704
2	4720	200735	2564
2	4723	200931	2392
2	4737	201355	2392
2	4743	201706	2337
2	4767	202816	2984
2	4770	203178	2906
2	4780	203392	2729
2	4797	204242	2766
2	4800	204357	3246
2	4817	205065	3151
2	4827	205443	3057
2	4830	205477	2663
2	4847	206292	3010
2	4857	206659	2992
2	4867	207101	2711
2	4870	207228	3201
2	4891	207980	3159
2	4894	208074	2786
2	4900	208318	2641
2	4910	208762	2639
2	4917	208901	2383
2	4923	209196	2265
2	4937	209851	2507
2	4953	210728	2957
2	4960	210993	2774
2	4977	211686	3076
2	4987	212013	2946
2	4994	212381	2908
2	5004	212758	2848
2	5010	212886	2581
2	5020	213271	2552
2	5030	213872	2757
2	5033	213874	2329
2	5043	214257	2298
2	5053	214733	2305
2	5070	215720	2863
2	5080	215997	2730
2	5086	216234	2588
2	5093	216554	2454
2	5114	217329	2821
2	5120	217806	2831
2	5130	218271	2914
2	5140	218562	2761
2	5154	218946	2747
2	5157	219177	2506
2	5170	219743	2704
2	5173	219978	2467
2	5183	220114	2223
2	5197	220943	2633
2	5210	221641	2874
2	5213	221759	2549
2	5230	222443	2786
2	5247	223324	3253
2	5257	223690	2716
2	5260	223705	3161
2	5281	224606	3218
2	5284	224729	2862
2	5290	225196	2964
2	5300	225347	2648
2	5317	226097	2967
2	5324	226340	2798
2	5337	226948	3041
2	5344	227174	2800
2	5350	227351	2562
2	5360	227976	2358
2	5363	228039	2803
2	5373	228393	2306
2	5390	229360	2842
2	5393	229366	2425
2	5410	230013	2261
2	5416	230276	2948
2	5437	231413	3209
2	5444	231597	2988
2	5450	231694	2639
2	5457	231936	2518
2	5470	232634	2852
2	5473	232740	2481
2	5486	233414	2700
2	5500	233826	2663
2	5510	234357	2722
2	5523	234994	2931
2	5537	235457	2927
2	5540	235598	2708
2	5550	236196	2933
2	5560	236486	2778
2	5573	236977	2852
2	5576	237002	2492
2	5594	237748	2781
2	5604	238105	2739
2	5610	238418	2587
2	5627	239150	2569
2	5634	239376	3177
2	5640	239792	2846
2	5650	240104	2716
2	5660	240582	2372
2	5663	240676	2841
2	5684	241394	2753
2	5697	242120	3098
2	5700	242140	2737
2	5710	242648	2769
2	5716	242863	2568
2	5730	243543	2834
2	5747	244201	3100
2	5757	244514	2951
2	5764	244692	2738
2	5770	244781	2457
2	5780	245582	2838
2	5794	245862	2671
2	5800	246073	2513
2	5810	246696	2762
2	5827	247452	2725
2	5830	247477	3150
2	5840	247855	2701
2	5850	248372	2777
2	5867	248999	2981
2	5877	249365	2956
2	5880	249586	2748
2	5890	249802	2575
2	5900	250383	2773
2	5914	250725	2664
2	5917	251015	2532
2	5934	252000	3066
2	5940	252057	2355
2	5947	252396	3059
2	5953	252667	2536
2	5973	253587	2987
2	5984	253799	2722
2	5993	254381	2836
2	6000	254490	2467
2	6017	255373	2968
2	6020	255401	2614
2	6041	256189	2977
2	6050	256699	2756
2	6053	256768	3188
2	6070	257416	3104
2	6073	257550	2466
2	6080	257580	2868
2	6097	258194	2734
2	6100	258222	2366
2	6117	259130	2900
2	6123	259439	2829
2	6130	259713	2725
2	6144	260114	2701
2	6150	260295	2521
2	6160	260779	2629
2	6170	261278	2250
2	6180	261668	3111
2	6190	261903	2481
2	6200	262399	2507
2	6214	263161	2890
2	6220	263283	2615
2	6237	264029	2970
2	6240	264189	2738
2	6243	264319	2472
2	6256	264938	2703
2	6274	265383	2670
2	6280	265999	2825
2	6297	266655	3103
2	6300	266677	2273
2	6303	266862	2875
2	6327	267833	3067
2	6330	267867	2666
2	6347	268610	2949
2	6350	268694	2615
2	6360	269165	2705
2	6370	269504	2597
2	6384	270086	2714
2	6393	270657	2846
2	6400	270808	2596
2	6410	271177	2602
2	6416	271440	2468
2	6430	272077	2670
2	6440	272423	2651
2	6457	273256	3068
2	6464	273350	2750
2	6474	273767	2784
2	6487	274407	3001
2	6490	274436	2612
2	6497	274739	2548
2	6503	274986	2376
2	6520	275732	2703
2	6530	276362	2866
2	6547	276931	2599
2	6550	276953	3073

