version 2
run Iteration-4-20220517-20:06:26-8952
attr configname Iteration
attr datetime 20220517-20:06:26
attr experiment Iteration
attr inifile omnetpp.ini
attr iterationvars "$i=5, $0=12-5"
attr iterationvarsf i=5,12-5-
attr measurement "$i=5, $0=12-5"
attr network Network
attr processid 8952
attr repetition 0
attr replication #0
attr resultdir results
attr runnumber 4
attr seedset 4
itervar i 5
param **.resource_ordering.amount 5
param **.resource_delivery.amount 12-5
param **.source.interArrivalTime uniform(8min,6min)
param **.allocate_ordering.resourceModuleName "\"resource_ordering\""
param **.delay_ordering.delay uniform(24min,16min)
param **.deallocate_ordering.resourceModuleName "\"resource_ordering\""
param **.allocate_delivery.resourceModuleName "\"resource_delivery\""
param **.delay_delivery.delay uniform(32min,20min)
param **.deallocate_delivery.resourceModuleName "\"resource_delivery\""

vector 0 Network.allocate_ordering queueLength:vector ETV
attr interpolationmode sample-hold
attr title "queue length, vector"
vector 1 Network.allocate_delivery queueLength:vector ETV
attr interpolationmode sample-hold
attr title "queue length, vector"
vector 2 Network.sinkStat lifeTime:vector ETV
attr interpolationmode none
attr title "lifetime of arrived jobs, vector"
attr unit s
0	0	0	0
1	0	0	0
2	44	3022	2658
2	50	3473	2737
2	60	4050	2855
2	70	4403	2435
2	77	4463	2891
2	83	4748	2317
2	104	5631	2721
2	113	6335	3053
2	116	6336	2598
2	130	6750	2221
2	133	6878	2732
2	150	7677	2317
2	157	7989	3057
2	177	9073	2830
2	180	9085	3250
2	190	9515	2812
2	203	10142	3022
2	210	10211	2642
2	231	11232	3210
2	237	11464	3010
2	240	11660	2399
2	254	12054	3198
2	260	12266	2555
2	270	12750	2671
2	280	13200	2352
2	287	13223	2741
2	307	14313	2652
2	310	14421	3131
2	324	15053	2952
2	337	15680	3202
2	344	15750	2872
2	361	16642	3313
2	364	16644	2476
2	370	16867	3066
2	373	17025	2393
2	390	17733	2665
2	393	17750	2239
2	403	18290	2361
2	420	18975	2663
2	427	19205	2491
2	447	20263	3087
2	457	20740	3188
2	467	21060	3046
2	481	21600	3180
2	484	21713	2401
2	490	21950	3102
2	507	22705	2936
2	514	22934	2392
2	517	22960	2786
2	530	23735	2803
2	536	24001	2207
2	546	24395	2990
2	560	24837	2574
2	570	25280	2604
2	587	25975	2909
2	590	26282	2815
2	596	26402	2520
2	610	26883	2230
2	620	27299	3046
2	634	27911	2390
2	640	28103	2986
2	643	28362	2473
2	660	29010	2676
2	666	29327	2607
2	680	29993	2394
2	690	30233	3092
2	700	30820	2829
2	707	30900	2536
2	720	31466	2712
2	730	31972	2752
2	737	32150	2550
2	750	32719	2680
2	760	33355	2880
2	766	33603	2680
2	784	34271	2902
2	790	34781	2942
2	807	35483	3267
2	817	35644	3063
2	820	35938	2915
2	837	36637	2731
2	840	36711	3248
2	850	37017	2642
2	860	37283	2493
2	877	38181	3006
2	884	38341	2363
2	887	38585	2975
2	893	38783	2365
2	917	39971	2703
2	920	40015	3139
2	930	40498	2326
2	937	40730	3010
2	950	41443	2825
2	963	42097	3050
2	977	42535	2571
2	980	42549	3037
2	997	43330	2971
2	1004	43591	2404
2	1010	43835	2240
2	1013	43960	3187
2	1023	44370	2320
2	1047	45394	2925
2	1050	45399	2527
2	1063	46296	3032
2	1070	46333	2668
2	1087	47173	3094
2	1094	47478	3039
2	1100	47540	2629
2	1114	48229	2892
2	1124	48764	2989
2	1130	48871	2626
2	1144	49507	2801
2	1147	49586	2470
2	1160	50344	2812
2	1170	50658	2686
2	1177	50960	2513
2	1194	51693	2839
2	1203	52307	3024
2	1217	52713	2953
2	1227	53065	2905
2	1230	53128	2512
2	1240	53658	2642
2	1257	54253	2869
2	1264	54524	2330
2	1274	54834	3014
2	1287	55557	2998
2	1297	55914	2964
2	1300	56088	2662
2	1306	56383	2555
2	1316	56723	2512
2	1337	57540	2917
2	1347	58116	3101
2	1350	58252	2824
2	1366	58839	2954
2	1370	59064	2758
2	1380	59450	2743
2	1397	60333	3223
2	1404	60437	2951
2	1407	60565	2647
2	1427	61487	3089
2	1430	61655	2816
2	1443	62272	3038
2	1453	62510	2825
2	1456	62532	2411
2	1474	63258	2687
2	1480	63731	2793
2	1494	64161	2832
2	1500	64425	2718
2	1510	64930	2795
2	1523	65563	3057
2	1537	66001	3034
2	1540	66016	2650
2	1550	66557	2801
2	1560	66948	2275
2	1570	67453	3226
2	1584	68088	2586
2	1590	68303	3185
2	1604	68864	2882
2	1610	69106	2281
2	1613	69235	2780
2	1630	70041	2750
2	1640	70539	2858
2	1650	70790	2634
2	1657	71035	2459
2	1670	71780	2793
2	1680	72276	2863
2	1687	72359	2561
2	1693	72570	2388
2	1710	73299	2696
2	1719	73662	2612
2	1734	74470	2976
2	1740	74501	2566
2	1750	74940	2535
2	1760	75652	2793
2	1766	75726	2462
2	1780	76122	2460
2	1790	76923	2889
2	1807	77487	2638
2	1814	77693	3211
2	1827	78228	2938
2	1833	78641	2580
2	1840	78912	3257
2	1850	79199	2720
2	1860	79659	2728
2	1870	79989	2688
2	1880	80400	2645
2	1890	80965	2837
2	1907	81565	2964
2	1910	81797	2817
2	1920	82122	2710
2	1930	82451	2678
2	1943	83212	2961
2	1957	83749	2647
2	1960	83776	2310
2	1963	83870	3242
2	1987	84810	2502
2	1990	84994	3076
2	2007	85695	3012
2	2017	86204	2617
2	2020	86381	2406
2	2023	86396	3274
2	2037	86933	2569
2	2043	87123	2372
2	2064	88074	2864
2	2077	88578	2896
2	2087	89211	3158
2	2093	89331	2393
2	2100	89613	3115
2	2110	89952	2652
2	2127	90802	3081
2	2133	90941	2849
2	2147	91419	2922
2	2154	91697	2773
2	2160	91834	2547
2	2170	92418	2348
2	2173	92593	2932
2	2183	92807	2302
2	2200	93623	2685
2	2210	94088	2265
2	2220	94400	2984
2	2230	94916	2731
2	2244	95294	2698
2	2247	95328	2279
2	2257	95767	2329
2	2263	96333	2521
2	2273	96733	2464
2	2279	96995	2278
2	2307	98416	3274
2	2317	98743	2780
2	2320	98855	2458
2	2327	98878	3294
2	2343	99844	2975
2	2350	100159	2855
2	2353	100165	2472
2	2363	100507	2391
2	2384	101365	2802
2	2390	101741	2727
2	2400	102103	2668
2	2410	102442	2248
2	2413	102718	2903
2	2430	103531	2941
2	2444	103886	2893
2	2450	104207	2736
2	2456	104484	2533
2	2474	105341	3030
2	2480	105385	2635
2	2493	106213	3053
2	2500	106416	2848
2	2503	106449	2475
2	2531	107609	3164
2	2541	107987	3071
2	2547	108342	2986
2	2550	108458	2735
2	2567	108960	2423
2	2570	109042	2866
2	2587	109789	2867
2	2594	110162	2490
2	2600	110209	2925
2	2617	111141	2188
2	2620	111308	3243
2	2630	111532	2990
2	2647	112325	2610
2	2650	112467	3118
2	2653	112669	2479
2	2674	113447	2460
2	2680	113731	3151
2	2693	114255	2861
2	2707	115009	3154
2	2714	115131	2914
2	2727	115641	2964
2	2734	115901	2826
2	2740	116324	2861
2	2743	116331	2477
2	2767	117313	3075
2	2770	117625	2942
2	2780	118044	2887
2	2790	118447	2512
2	2800	118731	3178
2	2814	119160	2754
2	2824	119842	2964
2	2830	120261	2968
2	2847	120803	3116
2	2850	120925	2774
2	2860	121414	2834
2	2877	122122	2718
2	2880	122172	3203
2	2890	122746	2864
2	2900	123063	2725
2	2913	123823	3032
2	2920	124051	2782
2	2926	124288	2606
2	2944	124853	2776
2	2957	125453	2981
2	2960	125721	2825
2	2966	125839	2554
2	2984	126499	2364
2	2990	126593	2910
2	3000	127196	2624
2	3017	128066	3051
2	3024	128337	2926
2	3027	128353	2579
2	3037	128705	2547
2	3047	129133	2543
2	3064	129941	2911
2	3077	130386	2897
2	3080	130482	2584
2	3094	131140	2774
2	3107	131660	2501
2	3110	131758	3015
2	3120	132421	2857
2	3130	132884	2922
2	3140	133315	2947
2	3157	133814	3027
2	3167	134312	3138
2	3170	134457	2824
2	3184	134970	2909
2	3190	135351	2465
2	3200	135672	3248
2	3210	135883	2546
2	3213	136032	2290
2	3230	136780	2622
2	3240	137376	2811
2	3243	137575	2573
2	3257	137856	2461
2	3281	139050	3200
2	3287	139330	2585
2	3290	139511	3243
2	3300	140061	2898
2	3303	140095	2518
2	3320	140626	2661
2	3337	141463	2626
2	3340	141588	3172
2	3343	141599	2296
2	3364	142569	2829
2	3367	142679	2496
2	3380	143198	2652
2	3386	143665	2322
2	3396	143996	3023
2	3410	144548	2740
2	3427	145219	2976
2	3430	145463	2362
2	3436	145560	2859
2	3450	146137	2645
2	3460	146484	2527
2	3477	147475	3096
2	3480	147569	2758
2	3486	147861	2665
2	3500	148399	2840
2	3507	148534	2523
2	3527	149508	3050
2	3534	149726	2874
2	3540	150180	2966
2	3546	150429	2816
2	3560	150904	2814
2	3563	151000	2442
2	3591	152158	3122
2	3594	152250	2849
2	3607	152981	3220
2	3614	153111	2919
2	3624	153416	2860
2	3630	153748	2744
2	3640	154191	2713
2	3650	154781	2829
2	3663	155247	2916
2	3681	155941	3166
2	3687	156205	2981
2	3694	156306	2688
2	3700	156608	2597
2	3710	157104	2646
2	3724	157583	2739
2	3734	158034	2801
2	3747	158544	2529
2	3757	158924	3277
2	3767	159459	3036
2	3777	159729	2854
2	3780	159787	2540
2	3787	160072	2391
2	3797	160454	2378
2	3810	161037	2586
2	3820	161378	2532
2	3830	162030	2386
2	3840	162240	3030
2	3857	163057	2982
2	3860	163291	2381
2	3863	163324	2782
2	3880	164019	2669
2	3883	164026	2288
2	3900	164874	2755
2	3910	165206	2694
2	3923	165943	2977
2	3926	165982	2541
2	3940	166555	2692
2	3957	167190	2965
2	3964	167490	2848
2	3977	168070	3001
2	3983	168382	2478
2	3986	168391	2912
2	3997	168707	2381
2	4010	169558	2831
2	4023	170146	2990
2	4034	170278	2699
2	4037	170360	2354
2	4050	171235	2861
2	4064	171657	2463
2	4070	171805	3037
2	4080	172314	2667
2	4094	172955	2468
2	4104	173261	3196
2	4110	173546	2678
2	4124	174002	2739
2	4127	174248	2543
2	4133	174458	2349
2	4143	174931	2447
2	4153	175274	2311
2	4167	176066	2634
2	4184	176841	2985
2	4190	177008	2715
2	4193	177335	2585
2	4210	178133	2513
2	4220	178305	3107
2	4230	178765	2678
2	4240	179098	2575
2	4250	179584	2698
2	4260	180112	2766
2	4277	180849	3058
2	4280	180877	2681
2	4297	181517	2485
2	4300	181816	3193
2	4308	182073	2677
2	4323	182751	2905
2	4337	183211	2907
2	4343	183640	2557
2	4354	183870	3161
2	4364	184313	2809
2	4370	184638	2729
2	4380	185227	2500
2	4390	185408	3077
2	4393	185652	2496
2	4410	186379	2747
2	4424	186887	2816
2	4437	187519	3074
2	4440	187559	2651
2	4457	188500	3226
2	4463	188658	2967
2	4477	189079	2468
2	4480	189205	3040
2	4494	189834	2860
2	4507	190437	3068
2	4514	190680	2950
2	4520	190832	2258
2	4530	191357	3162
2	4540	191728	2262
2	4547	191823	2787
2	4560	192721	2824
2	4570	193042	2763
2	4580	193600	2844
2	4590	193877	2697
2	4607	194836	3222
2	4617	194974	2920
2	4624	195284	2831
2	4637	195831	2988
2	4647	196440	3198
2	4657	196600	2538
2	4660	196788	3094
2	4681	197651	3202
2	4684	197740	2865
2	4694	198079	2754
2	4700	198341	2621
2	4707	198405	2283
2	4724	199259	2702
2	4730	199736	2811
2	4740	200159	2830
2	4754	200780	2637
2	4760	200859	3109
2	4766	201209	2689
2	4783	202021	2605
2	4786	202034	3058
2	4800	202843	2968
2	4810	203283	2968
2	4820	203470	2679
2	4837	204349	2828
2	4840	204382	3224
2	4850	204609	2636
2	4864	205214	2764
2	4874	205591	2718
2	4880	205847	2561
2	4883	205924	2235
2	4907	206978	2912
2	4910	207039	2583
2	4920	207512	2210
2	4930	208002	3173
2	4940	208421	2707
2	4943	208448	2370
2	4967	209638	3156
2	4977	209939	2592
2	4980	210017	3098
2	4990	210252	2492
2	5000	210698	2560
2	5006	211072	2531
2	5016	211413	2490
2	5037	212253	2885
2	5044	212581	2799
2	5050	212869	2659
2	5067	213629	2666
2	5070	213664	3087
2	5080	214000	2661
2	5094	214634	2837
2	5100	214656	2495
2	5103	214933	2321
2	5124	215815	2787
2	5130	216102	2620
2	5147	216827	2972
2	5150	217140	2923
2	5156	217298	2651
2	5159	217319	2216
2	5180	218027	2457
2	5201	219056	2667
2	5204	219129	3121
2	5210	219415	2212
2	5213	219510	2753
2	5230	220095	2459
2	5243	220929	2930
2	5254	221223	2446
2	5260	221350	2990
2	5263	221563	2343
2	5280	222425	2741
2	5290	222832	2772
2	5300	223216	2742
2	5310	223816	2953
2	5327	224412	3131
2	5330	224486	2284
2	5340	224817	3086
2	5357	225660	2606
2	5364	225862	3280
2	5370	226137	2704
2	5380	226635	2780
2	5390	226909	2622
2	5400	227578	2862
2	5414	227958	2327
2	5420	228311	3156
2	5437	229077	2196
2	5443	229231	3170
2	5450	229477	2957
2	5471	230411	3084
2	5477	230592	2902
2	5483	230916	2838
2	5494	231288	2435
2	5500	231520	3080
2	5503	231598	2381
2	5527	232906	3299
2	5530	232926	2880
2	5547	233421	2996
2	5557	233996	3122
2	5567	234460	3144
2	5577	234867	3078
2	5583	235176	3023
2	5593	235557	3000
2	5600	235728	2736
2	5621	236462	2678
2	5627	236645	3236
2	5637	237193	3015
2	5654	237780	3228
2	5657	237823	2493
2	5660	237864	2951
2	5677	238762	2612
2	5680	238818	3077
2	5697	239373	2856
2	5700	239585	2637
2	5706	239834	2508
2	5717	240238	2475
2	5723	240550	2409
2	5740	241190	2252
2	5743	241277	2746
2	5760	242195	2828
2	5770	242521	2694
2	5783	243410	3159
2	5790	243494	2772
2	5800	243946	2810
2	5803	244120	2555
2	5820	244850	2832
2	5830	245047	2604
2	5840	245498	2656
2	5850	245967	2730
2	5867	246757	3085
2	5877	247057	2915
2	5883	247421	2881
2	5897	247885	2507
2	5904	248104	3136
2	5910	248356	2602
2	5924	248949	2421
2	5930	249131	2979
2	5940	249748	2797
2	5943	249788	2413
2	5953	250044	2250
2	5970	250899	2722
2	5976	251145	2530
2	5990	251685	2618
2	6000	252313	2813
2	6010	252600	2705
2	6013	252602	2268
2	6023	253233	2535
2	6051	254392	3250
2	6057	254855	3273
2	6067	255052	3037
2	6073	255390	2931
2	6076	255567	2238
2	6090	255750	2844
2	6100	256457	2733
2	6114	257029	2829
2	6120	257312	2737
2	6130	257766	2803
2	6144	258292	2553
2	6150	258412	3059
2	6164	259068	2868
2	6170	259357	2697
2	6180	259900	2360
2	6183	260028	2895
2	6193	260295	2363
2	6210	261344	2933
2	6216	261505	2618
2	6233	262303	2954
2	6236	262338	2581
2	6250	263011	2454
2	6253	263058	2932
2	6273	264065	3066
2	6280	264257	2890
2	6290	264350	2529
2	6300	264822	2526
2	6317	265867	3146
2	6320	265985	2852
2	6330	266276	2775
2	6340	266582	2717
2	6350	266986	2714
2	6356	267399	2650
2	6374	268031	2811
2	6387	268460	2832
2	6390	268771	2714
2	6400	269196	2751
2	6413	269664	2820
2	6420	270058	2835
2	6444	270977	3345
2	6447	271098	3058
2	6450	271152	2700
2	6460	271718	2438
2	6470	271930	3059
2	6480	272433	2774
2	6494	272975	2860
2	6500	273297	2379
2	6510	273640	3142
2	6520	274332	2986
2	6530	274701	2916
2	6540	275180	2935
2	6554	275458	2740
2	6567	276358	2841
2	6574	276431	3303
2	6587	276943	2993

